n -t 0 -s 0 -S DLABEL -l "Sender" -L ""
n -t 0 -s 1 -S DLABEL -l "Mobile Station" -L ""
n -t 0 -s 2 -S DLABEL -l "Base Station 1" -L ""
n -t 0 -s 3 -S DLABEL -l "Base Station 2" -L ""
n -t 0 -s 4 -S DLABEL -l "Destination" -L ""
V -t * -v 1.0a5 -a 0
A -t * -n 1 -p 0 -o 0x7fffffff -c 30 -a 1
A -t * -h 1 -m 1073741823 -s 0
n -t * -a 4 -s 4 -S UP -v circle -c black -i black
n -t * -a 0 -s 0 -S UP -v circle -c Magenta -i Magenta
n -t * -a 1 -s 1 -S UP -v circle -c black -i black
n -t * -a 2 -s 2 -S UP -v circle -c black -i black
n -t * -a 3 -s 3 -S UP -v circle -c black -i black
l -t * -s 4 -d 2 -S UP -r 3000000 -D 1e-08 -c black
l -t * -s 2 -d 1 -S UP -r 9600 -D 0.5 -c black
l -t * -s 1 -d 3 -S UP -r 9600 -D 0.5 -c black
l -t * -s 3 -d 0 -S UP -r 3000000 -D 1.5000000000000002e-08 -c black
+ -t 0.8 -s 0 -d 3 -p tcp -e 40 -c 0 -i 0 -a 0 -x {0.0 4.0 0 ------- null}
- -t 0.8 -s 0 -d 3 -p tcp -e 40 -c 0 -i 0 -a 0 -x {0.0 4.0 0 ------- null}
h -t 0.8 -s 0 -d 3 -p tcp -e 40 -c 0 -i 0 -a 0 -x {0.0 4.0 -1 ------- null}
r -t 0.800106681666667 -s 0 -d 3 -p tcp -e 40 -c 0 -i 0 -a 0 -x {0.0 4.0 0 ------- null}
+ -t 0.800106681666667 -s 3 -d 1 -p tcp -e 40 -c 0 -i 0 -a 0 -x {0.0 4.0 0 ------- null}
- -t 0.800106681666667 -s 3 -d 1 -p tcp -e 40 -c 0 -i 0 -a 0 -x {0.0 4.0 0 ------- null}
h -t 0.800106681666667 -s 3 -d 1 -p tcp -e 40 -c 0 -i 0 -a 0 -x {0.0 4.0 -1 ------- null}
r -t 1.333440015 -s 3 -d 1 -p tcp -e 40 -c 0 -i 0 -a 0 -x {0.0 4.0 0 ------- null}
+ -t 1.333440015 -s 1 -d 2 -p tcp -e 40 -c 0 -i 0 -a 0 -x {0.0 4.0 0 ------- null}
- -t 1.333440015 -s 1 -d 2 -p tcp -e 40 -c 0 -i 0 -a 0 -x {0.0 4.0 0 ------- null}
h -t 1.333440015 -s 1 -d 2 -p tcp -e 40 -c 0 -i 0 -a 0 -x {0.0 4.0 -1 ------- null}
r -t 1.86677334833333 -s 1 -d 2 -p tcp -e 40 -c 0 -i 0 -a 0 -x {0.0 4.0 0 ------- null}
+ -t 1.86677334833333 -s 2 -d 4 -p tcp -e 40 -c 0 -i 0 -a 0 -x {0.0 4.0 0 ------- null}
- -t 1.86677334833333 -s 2 -d 4 -p tcp -e 40 -c 0 -i 0 -a 0 -x {0.0 4.0 0 ------- null}
h -t 1.86677334833333 -s 2 -d 4 -p tcp -e 40 -c 0 -i 0 -a 0 -x {0.0 4.0 -1 ------- null}
r -t 1.866880025 -s 2 -d 4 -p tcp -e 40 -c 0 -i 0 -a 0 -x {0.0 4.0 0 ------- null}
+ -t 1.866880025 -s 4 -d 2 -p ack -e 40 -c 0 -i 1 -a 0 -x {4.0 0.0 0 ------- null}
- -t 1.866880025 -s 4 -d 2 -p ack -e 40 -c 0 -i 1 -a 0 -x {4.0 0.0 0 ------- null}
h -t 1.866880025 -s 4 -d 2 -p ack -e 40 -c 0 -i 1 -a 0 -x {4.0 0.0 -1 ------- null}
r -t 1.86698670166667 -s 4 -d 2 -p ack -e 40 -c 0 -i 1 -a 0 -x {4.0 0.0 0 ------- null}
+ -t 1.86698670166667 -s 2 -d 1 -p ack -e 40 -c 0 -i 1 -a 0 -x {4.0 0.0 0 ------- null}
- -t 1.86698670166667 -s 2 -d 1 -p ack -e 40 -c 0 -i 1 -a 0 -x {4.0 0.0 0 ------- null}
h -t 1.86698670166667 -s 2 -d 1 -p ack -e 40 -c 0 -i 1 -a 0 -x {4.0 0.0 -1 ------- null}
r -t 2.400320035 -s 2 -d 1 -p ack -e 40 -c 0 -i 1 -a 0 -x {4.0 0.0 0 ------- null}
+ -t 2.400320035 -s 1 -d 3 -p ack -e 40 -c 0 -i 1 -a 0 -x {4.0 0.0 0 ------- null}
- -t 2.400320035 -s 1 -d 3 -p ack -e 40 -c 0 -i 1 -a 0 -x {4.0 0.0 0 ------- null}
h -t 2.400320035 -s 1 -d 3 -p ack -e 40 -c 0 -i 1 -a 0 -x {4.0 0.0 -1 ------- null}
r -t 2.93365336833333 -s 1 -d 3 -p ack -e 40 -c 0 -i 1 -a 0 -x {4.0 0.0 0 ------- null}
+ -t 2.93365336833333 -s 3 -d 0 -p ack -e 40 -c 0 -i 1 -a 0 -x {4.0 0.0 0 ------- null}
- -t 2.93365336833333 -s 3 -d 0 -p ack -e 40 -c 0 -i 1 -a 0 -x {4.0 0.0 0 ------- null}
h -t 2.93365336833333 -s 3 -d 0 -p ack -e 40 -c 0 -i 1 -a 0 -x {4.0 0.0 -1 ------- null}
r -t 2.93376005 -s 3 -d 0 -p ack -e 40 -c 0 -i 1 -a 0 -x {4.0 0.0 0 ------- null}
+ -t 2.93376005 -s 0 -d 3 -p tcp -e 1040 -c 0 -i 2 -a 0 -x {0.0 4.0 1 ------- null}
- -t 2.93376005 -s 0 -d 3 -p tcp -e 1040 -c 0 -i 2 -a 0 -x {0.0 4.0 1 ------- null}
h -t 2.93376005 -s 0 -d 3 -p tcp -e 1040 -c 0 -i 2 -a 0 -x {0.0 4.0 -1 ------- null}
+ -t 2.93376005 -s 0 -d 3 -p tcp -e 1040 -c 0 -i 3 -a 0 -x {0.0 4.0 2 ------- null}
- -t 2.93653338333333 -s 0 -d 3 -p tcp -e 1040 -c 0 -i 3 -a 0 -x {0.0 4.0 2 ------- null}
h -t 2.93653338333333 -s 0 -d 3 -p tcp -e 1040 -c 0 -i 3 -a 0 -x {0.0 4.0 -1 ------- null}
r -t 2.93653339833333 -s 0 -d 3 -p tcp -e 1040 -c 0 -i 2 -a 0 -x {0.0 4.0 1 ------- null}
+ -t 2.93653339833333 -s 3 -d 1 -p tcp -e 1040 -c 0 -i 2 -a 0 -x {0.0 4.0 1 ------- null}
- -t 2.93653339833333 -s 3 -d 1 -p tcp -e 1040 -c 0 -i 2 -a 0 -x {0.0 4.0 1 ------- null}
h -t 2.93653339833333 -s 3 -d 1 -p tcp -e 1040 -c 0 -i 2 -a 0 -x {0.0 4.0 -1 ------- null}
r -t 2.93930673166667 -s 0 -d 3 -p tcp -e 1040 -c 0 -i 3 -a 0 -x {0.0 4.0 2 ------- null}
+ -t 2.93930673166667 -s 3 -d 1 -p tcp -e 1040 -c 0 -i 3 -a 0 -x {0.0 4.0 2 ------- null}
- -t 3.803200065 -s 3 -d 1 -p tcp -e 1040 -c 0 -i 3 -a 0 -x {0.0 4.0 2 ------- null}
h -t 3.803200065 -s 3 -d 1 -p tcp -e 1040 -c 0 -i 3 -a 0 -x {0.0 4.0 -1 ------- null}
r -t 4.303200065 -s 3 -d 1 -p tcp -e 1040 -c 0 -i 2 -a 0 -x {0.0 4.0 1 ------- null}
+ -t 4.303200065 -s 1 -d 2 -p tcp -e 1040 -c 0 -i 2 -a 0 -x {0.0 4.0 1 ------- null}
- -t 4.303200065 -s 1 -d 2 -p tcp -e 1040 -c 0 -i 2 -a 0 -x {0.0 4.0 1 ------- null}
h -t 4.303200065 -s 1 -d 2 -p tcp -e 1040 -c 0 -i 2 -a 0 -x {0.0 4.0 -1 ------- null}
r -t 5.16986673166667 -s 3 -d 1 -p tcp -e 1040 -c 0 -i 3 -a 0 -x {0.0 4.0 2 ------- null}
+ -t 5.16986673166667 -s 1 -d 2 -p tcp -e 1040 -c 0 -i 3 -a 0 -x {0.0 4.0 2 ------- null}
- -t 5.16986673166667 -s 1 -d 2 -p tcp -e 1040 -c 0 -i 3 -a 0 -x {0.0 4.0 2 ------- null}
h -t 5.16986673166667 -s 1 -d 2 -p tcp -e 1040 -c 0 -i 3 -a 0 -x {0.0 4.0 -1 ------- null}
r -t 5.66986673166667 -s 1 -d 2 -p tcp -e 1040 -c 0 -i 2 -a 0 -x {0.0 4.0 1 ------- null}
+ -t 5.66986673166667 -s 2 -d 4 -p tcp -e 1040 -c 0 -i 2 -a 0 -x {0.0 4.0 1 ------- null}
- -t 5.66986673166667 -s 2 -d 4 -p tcp -e 1040 -c 0 -i 2 -a 0 -x {0.0 4.0 1 ------- null}
h -t 5.66986673166667 -s 2 -d 4 -p tcp -e 1040 -c 0 -i 2 -a 0 -x {0.0 4.0 -1 ------- null}
r -t 5.672640075 -s 2 -d 4 -p tcp -e 1040 -c 0 -i 2 -a 0 -x {0.0 4.0 1 ------- null}
+ -t 5.672640075 -s 4 -d 2 -p ack -e 40 -c 0 -i 4 -a 0 -x {4.0 0.0 1 ------- null}
- -t 5.672640075 -s 4 -d 2 -p ack -e 40 -c 0 -i 4 -a 0 -x {4.0 0.0 1 ------- null}
h -t 5.672640075 -s 4 -d 2 -p ack -e 40 -c 0 -i 4 -a 0 -x {4.0 0.0 -1 ------- null}
r -t 5.67274675166667 -s 4 -d 2 -p ack -e 40 -c 0 -i 4 -a 0 -x {4.0 0.0 1 ------- null}
+ -t 5.67274675166667 -s 2 -d 1 -p ack -e 40 -c 0 -i 4 -a 0 -x {4.0 0.0 1 ------- null}
- -t 5.67274675166667 -s 2 -d 1 -p ack -e 40 -c 0 -i 4 -a 0 -x {4.0 0.0 1 ------- null}
h -t 5.67274675166667 -s 2 -d 1 -p ack -e 40 -c 0 -i 4 -a 0 -x {4.0 0.0 -1 ------- null}
r -t 6.206080085 -s 2 -d 1 -p ack -e 40 -c 0 -i 4 -a 0 -x {4.0 0.0 1 ------- null}
+ -t 6.206080085 -s 1 -d 3 -p ack -e 40 -c 0 -i 4 -a 0 -x {4.0 0.0 1 ------- null}
- -t 6.206080085 -s 1 -d 3 -p ack -e 40 -c 0 -i 4 -a 0 -x {4.0 0.0 1 ------- null}
h -t 6.206080085 -s 1 -d 3 -p ack -e 40 -c 0 -i 4 -a 0 -x {4.0 0.0 -1 ------- null}
r -t 6.53653339833333 -s 1 -d 2 -p tcp -e 1040 -c 0 -i 3 -a 0 -x {0.0 4.0 2 ------- null}
+ -t 6.53653339833333 -s 2 -d 4 -p tcp -e 1040 -c 0 -i 3 -a 0 -x {0.0 4.0 2 ------- null}
- -t 6.53653339833333 -s 2 -d 4 -p tcp -e 1040 -c 0 -i 3 -a 0 -x {0.0 4.0 2 ------- null}
h -t 6.53653339833333 -s 2 -d 4 -p tcp -e 1040 -c 0 -i 3 -a 0 -x {0.0 4.0 -1 ------- null}
r -t 6.53930674166667 -s 2 -d 4 -p tcp -e 1040 -c 0 -i 3 -a 0 -x {0.0 4.0 2 ------- null}
+ -t 6.53930674166667 -s 4 -d 2 -p ack -e 40 -c 0 -i 5 -a 0 -x {4.0 0.0 2 ------- null}
- -t 6.53930674166667 -s 4 -d 2 -p ack -e 40 -c 0 -i 5 -a 0 -x {4.0 0.0 2 ------- null}
h -t 6.53930674166667 -s 4 -d 2 -p ack -e 40 -c 0 -i 5 -a 0 -x {4.0 0.0 -1 ------- null}
r -t 6.53941341833333 -s 4 -d 2 -p ack -e 40 -c 0 -i 5 -a 0 -x {4.0 0.0 2 ------- null}
+ -t 6.53941341833333 -s 2 -d 1 -p ack -e 40 -c 0 -i 5 -a 0 -x {4.0 0.0 2 ------- null}
- -t 6.53941341833333 -s 2 -d 1 -p ack -e 40 -c 0 -i 5 -a 0 -x {4.0 0.0 2 ------- null}
h -t 6.53941341833333 -s 2 -d 1 -p ack -e 40 -c 0 -i 5 -a 0 -x {4.0 0.0 -1 ------- null}
r -t 6.73941341833333 -s 1 -d 3 -p ack -e 40 -c 0 -i 4 -a 0 -x {4.0 0.0 1 ------- null}
+ -t 6.73941341833333 -s 3 -d 0 -p ack -e 40 -c 0 -i 4 -a 0 -x {4.0 0.0 1 ------- null}
- -t 6.73941341833333 -s 3 -d 0 -p ack -e 40 -c 0 -i 4 -a 0 -x {4.0 0.0 1 ------- null}
h -t 6.73941341833333 -s 3 -d 0 -p ack -e 40 -c 0 -i 4 -a 0 -x {4.0 0.0 -1 ------- null}
r -t 6.7395201 -s 3 -d 0 -p ack -e 40 -c 0 -i 4 -a 0 -x {4.0 0.0 1 ------- null}
+ -t 6.7395201 -s 0 -d 3 -p tcp -e 1040 -c 0 -i 6 -a 0 -x {0.0 4.0 3 ------- null}
- -t 6.7395201 -s 0 -d 3 -p tcp -e 1040 -c 0 -i 6 -a 0 -x {0.0 4.0 3 ------- null}
h -t 6.7395201 -s 0 -d 3 -p tcp -e 1040 -c 0 -i 6 -a 0 -x {0.0 4.0 -1 ------- null}
+ -t 6.7395201 -s 0 -d 3 -p tcp -e 1040 -c 0 -i 7 -a 0 -x {0.0 4.0 4 ------- null}
- -t 6.74229343333333 -s 0 -d 3 -p tcp -e 1040 -c 0 -i 7 -a 0 -x {0.0 4.0 4 ------- null}
h -t 6.74229343333333 -s 0 -d 3 -p tcp -e 1040 -c 0 -i 7 -a 0 -x {0.0 4.0 -1 ------- null}
r -t 6.74229344833333 -s 0 -d 3 -p tcp -e 1040 -c 0 -i 6 -a 0 -x {0.0 4.0 3 ------- null}
+ -t 6.74229344833333 -s 3 -d 1 -p tcp -e 1040 -c 0 -i 6 -a 0 -x {0.0 4.0 3 ------- null}
- -t 6.74229344833333 -s 3 -d 1 -p tcp -e 1040 -c 0 -i 6 -a 0 -x {0.0 4.0 3 ------- null}
h -t 6.74229344833333 -s 3 -d 1 -p tcp -e 1040 -c 0 -i 6 -a 0 -x {0.0 4.0 -1 ------- null}
r -t 6.74506678166667 -s 0 -d 3 -p tcp -e 1040 -c 0 -i 7 -a 0 -x {0.0 4.0 4 ------- null}
+ -t 6.74506678166667 -s 3 -d 1 -p tcp -e 1040 -c 0 -i 7 -a 0 -x {0.0 4.0 4 ------- null}
r -t 7.07274675166667 -s 2 -d 1 -p ack -e 40 -c 0 -i 5 -a 0 -x {4.0 0.0 2 ------- null}
+ -t 7.07274675166667 -s 1 -d 3 -p ack -e 40 -c 0 -i 5 -a 0 -x {4.0 0.0 2 ------- null}
- -t 7.07274675166667 -s 1 -d 3 -p ack -e 40 -c 0 -i 5 -a 0 -x {4.0 0.0 2 ------- null}
h -t 7.07274675166667 -s 1 -d 3 -p ack -e 40 -c 0 -i 5 -a 0 -x {4.0 0.0 -1 ------- null}
r -t 7.606080085 -s 1 -d 3 -p ack -e 40 -c 0 -i 5 -a 0 -x {4.0 0.0 2 ------- null}
+ -t 7.606080085 -s 3 -d 0 -p ack -e 40 -c 0 -i 5 -a 0 -x {4.0 0.0 2 ------- null}
- -t 7.606080085 -s 3 -d 0 -p ack -e 40 -c 0 -i 5 -a 0 -x {4.0 0.0 2 ------- null}
h -t 7.606080085 -s 3 -d 0 -p ack -e 40 -c 0 -i 5 -a 0 -x {4.0 0.0 -1 ------- null}
r -t 7.60618676666667 -s 3 -d 0 -p ack -e 40 -c 0 -i 5 -a 0 -x {4.0 0.0 2 ------- null}
+ -t 7.60618676666667 -s 0 -d 3 -p tcp -e 1040 -c 0 -i 8 -a 0 -x {0.0 4.0 5 ------- null}
- -t 7.60618676666667 -s 0 -d 3 -p tcp -e 1040 -c 0 -i 8 -a 0 -x {0.0 4.0 5 ------- null}
h -t 7.60618676666667 -s 0 -d 3 -p tcp -e 1040 -c 0 -i 8 -a 0 -x {0.0 4.0 -1 ------- null}
+ -t 7.60618676666667 -s 0 -d 3 -p tcp -e 1040 -c 0 -i 9 -a 0 -x {0.0 4.0 6 ------- null}
- -t 7.6089601 -s 0 -d 3 -p tcp -e 1040 -c 0 -i 9 -a 0 -x {0.0 4.0 6 ------- null}
h -t 7.6089601 -s 0 -d 3 -p tcp -e 1040 -c 0 -i 9 -a 0 -x {0.0 4.0 -1 ------- null}
- -t 7.608960115 -s 3 -d 1 -p tcp -e 1040 -c 0 -i 7 -a 0 -x {0.0 4.0 4 ------- null}
h -t 7.608960115 -s 3 -d 1 -p tcp -e 1040 -c 0 -i 7 -a 0 -x {0.0 4.0 -1 ------- null}
r -t 7.608960115 -s 0 -d 3 -p tcp -e 1040 -c 0 -i 8 -a 0 -x {0.0 4.0 5 ------- null}
+ -t 7.608960115 -s 3 -d 1 -p tcp -e 1040 -c 0 -i 8 -a 0 -x {0.0 4.0 5 ------- null}
r -t 7.61173344833333 -s 0 -d 3 -p tcp -e 1040 -c 0 -i 9 -a 0 -x {0.0 4.0 6 ------- null}
+ -t 7.61173344833333 -s 3 -d 1 -p tcp -e 1040 -c 0 -i 9 -a 0 -x {0.0 4.0 6 ------- null}
r -t 8.108960115 -s 3 -d 1 -p tcp -e 1040 -c 0 -i 6 -a 0 -x {0.0 4.0 3 ------- null}
+ -t 8.108960115 -s 1 -d 2 -p tcp -e 1040 -c 0 -i 6 -a 0 -x {0.0 4.0 3 ------- null}
- -t 8.108960115 -s 1 -d 2 -p tcp -e 1040 -c 0 -i 6 -a 0 -x {0.0 4.0 3 ------- null}
h -t 8.108960115 -s 1 -d 2 -p tcp -e 1040 -c 0 -i 6 -a 0 -x {0.0 4.0 -1 ------- null}
- -t 8.47562678166667 -s 3 -d 1 -p tcp -e 1040 -c 0 -i 8 -a 0 -x {0.0 4.0 5 ------- null}
h -t 8.47562678166667 -s 3 -d 1 -p tcp -e 1040 -c 0 -i 8 -a 0 -x {0.0 4.0 -1 ------- null}
r -t 8.97562678166667 -s 3 -d 1 -p tcp -e 1040 -c 0 -i 7 -a 0 -x {0.0 4.0 4 ------- null}
+ -t 8.97562678166667 -s 1 -d 2 -p tcp -e 1040 -c 0 -i 7 -a 0 -x {0.0 4.0 4 ------- null}
- -t 8.97562678166667 -s 1 -d 2 -p tcp -e 1040 -c 0 -i 7 -a 0 -x {0.0 4.0 4 ------- null}
h -t 8.97562678166667 -s 1 -d 2 -p tcp -e 1040 -c 0 -i 7 -a 0 -x {0.0 4.0 -1 ------- null}
- -t 9.34229344833333 -s 3 -d 1 -p tcp -e 1040 -c 0 -i 9 -a 0 -x {0.0 4.0 6 ------- null}
h -t 9.34229344833333 -s 3 -d 1 -p tcp -e 1040 -c 0 -i 9 -a 0 -x {0.0 4.0 -1 ------- null}
r -t 9.47562678166667 -s 1 -d 2 -p tcp -e 1040 -c 0 -i 6 -a 0 -x {0.0 4.0 3 ------- null}
+ -t 9.47562678166667 -s 2 -d 4 -p tcp -e 1040 -c 0 -i 6 -a 0 -x {0.0 4.0 3 ------- null}
- -t 9.47562678166667 -s 2 -d 4 -p tcp -e 1040 -c 0 -i 6 -a 0 -x {0.0 4.0 3 ------- null}
h -t 9.47562678166667 -s 2 -d 4 -p tcp -e 1040 -c 0 -i 6 -a 0 -x {0.0 4.0 -1 ------- null}
r -t 9.478400125 -s 2 -d 4 -p tcp -e 1040 -c 0 -i 6 -a 0 -x {0.0 4.0 3 ------- null}
+ -t 9.478400125 -s 4 -d 2 -p ack -e 40 -c 0 -i 10 -a 0 -x {4.0 0.0 3 ------- null}
- -t 9.478400125 -s 4 -d 2 -p ack -e 40 -c 0 -i 10 -a 0 -x {4.0 0.0 3 ------- null}
h -t 9.478400125 -s 4 -d 2 -p ack -e 40 -c 0 -i 10 -a 0 -x {4.0 0.0 -1 ------- null}
r -t 9.47850680166667 -s 4 -d 2 -p ack -e 40 -c 0 -i 10 -a 0 -x {4.0 0.0 3 ------- null}
+ -t 9.47850680166667 -s 2 -d 1 -p ack -e 40 -c 0 -i 10 -a 0 -x {4.0 0.0 3 ------- null}
- -t 9.47850680166667 -s 2 -d 1 -p ack -e 40 -c 0 -i 10 -a 0 -x {4.0 0.0 3 ------- null}
h -t 9.47850680166667 -s 2 -d 1 -p ack -e 40 -c 0 -i 10 -a 0 -x {4.0 0.0 -1 ------- null}
r -t 9.84229344833333 -s 3 -d 1 -p tcp -e 1040 -c 0 -i 8 -a 0 -x {0.0 4.0 5 ------- null}
+ -t 9.84229344833333 -s 1 -d 2 -p tcp -e 1040 -c 0 -i 8 -a 0 -x {0.0 4.0 5 ------- null}
- -t 9.84229344833333 -s 1 -d 2 -p tcp -e 1040 -c 0 -i 8 -a 0 -x {0.0 4.0 5 ------- null}
h -t 9.84229344833333 -s 1 -d 2 -p tcp -e 1040 -c 0 -i 8 -a 0 -x {0.0 4.0 -1 ------- null}
r -t 10.011840135 -s 2 -d 1 -p ack -e 40 -c 0 -i 10 -a 0 -x {4.0 0.0 3 ------- null}
+ -t 10.011840135 -s 1 -d 3 -p ack -e 40 -c 0 -i 10 -a 0 -x {4.0 0.0 3 ------- null}
- -t 10.011840135 -s 1 -d 3 -p ack -e 40 -c 0 -i 10 -a 0 -x {4.0 0.0 3 ------- null}
h -t 10.011840135 -s 1 -d 3 -p ack -e 40 -c 0 -i 10 -a 0 -x {4.0 0.0 -1 ------- null}
r -t 10.3422934483333 -s 1 -d 2 -p tcp -e 1040 -c 0 -i 7 -a 0 -x {0.0 4.0 4 ------- null}
+ -t 10.3422934483333 -s 2 -d 4 -p tcp -e 1040 -c 0 -i 7 -a 0 -x {0.0 4.0 4 ------- null}
- -t 10.3422934483333 -s 2 -d 4 -p tcp -e 1040 -c 0 -i 7 -a 0 -x {0.0 4.0 4 ------- null}
h -t 10.3422934483333 -s 2 -d 4 -p tcp -e 1040 -c 0 -i 7 -a 0 -x {0.0 4.0 -1 ------- null}
r -t 10.3450667916667 -s 2 -d 4 -p tcp -e 1040 -c 0 -i 7 -a 0 -x {0.0 4.0 4 ------- null}
+ -t 10.3450667916667 -s 4 -d 2 -p ack -e 40 -c 0 -i 11 -a 0 -x {4.0 0.0 4 ------- null}
- -t 10.3450667916667 -s 4 -d 2 -p ack -e 40 -c 0 -i 11 -a 0 -x {4.0 0.0 4 ------- null}
h -t 10.3450667916667 -s 4 -d 2 -p ack -e 40 -c 0 -i 11 -a 0 -x {4.0 0.0 -1 ------- null}
r -t 10.3451734683333 -s 4 -d 2 -p ack -e 40 -c 0 -i 11 -a 0 -x {4.0 0.0 4 ------- null}
+ -t 10.3451734683333 -s 2 -d 1 -p ack -e 40 -c 0 -i 11 -a 0 -x {4.0 0.0 4 ------- null}
- -t 10.3451734683333 -s 2 -d 1 -p ack -e 40 -c 0 -i 11 -a 0 -x {4.0 0.0 4 ------- null}
h -t 10.3451734683333 -s 2 -d 1 -p ack -e 40 -c 0 -i 11 -a 0 -x {4.0 0.0 -1 ------- null}
r -t 10.5451734683333 -s 1 -d 3 -p ack -e 40 -c 0 -i 10 -a 0 -x {4.0 0.0 3 ------- null}
+ -t 10.5451734683333 -s 3 -d 0 -p ack -e 40 -c 0 -i 10 -a 0 -x {4.0 0.0 3 ------- null}
- -t 10.5451734683333 -s 3 -d 0 -p ack -e 40 -c 0 -i 10 -a 0 -x {4.0 0.0 3 ------- null}
h -t 10.5451734683333 -s 3 -d 0 -p ack -e 40 -c 0 -i 10 -a 0 -x {4.0 0.0 -1 ------- null}
r -t 10.54528015 -s 3 -d 0 -p ack -e 40 -c 0 -i 10 -a 0 -x {4.0 0.0 3 ------- null}
+ -t 10.54528015 -s 0 -d 3 -p tcp -e 1040 -c 0 -i 12 -a 0 -x {0.0 4.0 7 ------- null}
- -t 10.54528015 -s 0 -d 3 -p tcp -e 1040 -c 0 -i 12 -a 0 -x {0.0 4.0 7 ------- null}
h -t 10.54528015 -s 0 -d 3 -p tcp -e 1040 -c 0 -i 12 -a 0 -x {0.0 4.0 -1 ------- null}
+ -t 10.54528015 -s 0 -d 3 -p tcp -e 1040 -c 0 -i 13 -a 0 -x {0.0 4.0 8 ------- null}
- -t 10.5480534833333 -s 0 -d 3 -p tcp -e 1040 -c 0 -i 13 -a 0 -x {0.0 4.0 8 ------- null}
h -t 10.5480534833333 -s 0 -d 3 -p tcp -e 1040 -c 0 -i 13 -a 0 -x {0.0 4.0 -1 ------- null}
r -t 10.5480534983333 -s 0 -d 3 -p tcp -e 1040 -c 0 -i 12 -a 0 -x {0.0 4.0 7 ------- null}
+ -t 10.5480534983333 -s 3 -d 1 -p tcp -e 1040 -c 0 -i 12 -a 0 -x {0.0 4.0 7 ------- null}
- -t 10.5480534983333 -s 3 -d 1 -p tcp -e 1040 -c 0 -i 12 -a 0 -x {0.0 4.0 7 ------- null}
h -t 10.5480534983333 -s 3 -d 1 -p tcp -e 1040 -c 0 -i 12 -a 0 -x {0.0 4.0 -1 ------- null}
r -t 10.5508268316667 -s 0 -d 3 -p tcp -e 1040 -c 0 -i 13 -a 0 -x {0.0 4.0 8 ------- null}
+ -t 10.5508268316667 -s 3 -d 1 -p tcp -e 1040 -c 0 -i 13 -a 0 -x {0.0 4.0 8 ------- null}
r -t 10.708960115 -s 3 -d 1 -p tcp -e 1040 -c 0 -i 9 -a 0 -x {0.0 4.0 6 ------- null}
+ -t 10.708960115 -s 1 -d 2 -p tcp -e 1040 -c 0 -i 9 -a 0 -x {0.0 4.0 6 ------- null}
- -t 10.708960115 -s 1 -d 2 -p tcp -e 1040 -c 0 -i 9 -a 0 -x {0.0 4.0 6 ------- null}
h -t 10.708960115 -s 1 -d 2 -p tcp -e 1040 -c 0 -i 9 -a 0 -x {0.0 4.0 -1 ------- null}
r -t 10.8785068016667 -s 2 -d 1 -p ack -e 40 -c 0 -i 11 -a 0 -x {4.0 0.0 4 ------- null}
+ -t 10.8785068016667 -s 1 -d 3 -p ack -e 40 -c 0 -i 11 -a 0 -x {4.0 0.0 4 ------- null}
- -t 10.8785068016667 -s 1 -d 3 -p ack -e 40 -c 0 -i 11 -a 0 -x {4.0 0.0 4 ------- null}
h -t 10.8785068016667 -s 1 -d 3 -p ack -e 40 -c 0 -i 11 -a 0 -x {4.0 0.0 -1 ------- null}
r -t 11.208960115 -s 1 -d 2 -p tcp -e 1040 -c 0 -i 8 -a 0 -x {0.0 4.0 5 ------- null}
+ -t 11.208960115 -s 2 -d 4 -p tcp -e 1040 -c 0 -i 8 -a 0 -x {0.0 4.0 5 ------- null}
- -t 11.208960115 -s 2 -d 4 -p tcp -e 1040 -c 0 -i 8 -a 0 -x {0.0 4.0 5 ------- null}
h -t 11.208960115 -s 2 -d 4 -p tcp -e 1040 -c 0 -i 8 -a 0 -x {0.0 4.0 -1 ------- null}
r -t 11.2117334583333 -s 2 -d 4 -p tcp -e 1040 -c 0 -i 8 -a 0 -x {0.0 4.0 5 ------- null}
+ -t 11.2117334583333 -s 4 -d 2 -p ack -e 40 -c 0 -i 14 -a 0 -x {4.0 0.0 5 ------- null}
- -t 11.2117334583333 -s 4 -d 2 -p ack -e 40 -c 0 -i 14 -a 0 -x {4.0 0.0 5 ------- null}
h -t 11.2117334583333 -s 4 -d 2 -p ack -e 40 -c 0 -i 14 -a 0 -x {4.0 0.0 -1 ------- null}
r -t 11.211840135 -s 4 -d 2 -p ack -e 40 -c 0 -i 14 -a 0 -x {4.0 0.0 5 ------- null}
+ -t 11.211840135 -s 2 -d 1 -p ack -e 40 -c 0 -i 14 -a 0 -x {4.0 0.0 5 ------- null}
- -t 11.211840135 -s 2 -d 1 -p ack -e 40 -c 0 -i 14 -a 0 -x {4.0 0.0 5 ------- null}
h -t 11.211840135 -s 2 -d 1 -p ack -e 40 -c 0 -i 14 -a 0 -x {4.0 0.0 -1 ------- null}
r -t 11.411840135 -s 1 -d 3 -p ack -e 40 -c 0 -i 11 -a 0 -x {4.0 0.0 4 ------- null}
+ -t 11.411840135 -s 3 -d 0 -p ack -e 40 -c 0 -i 11 -a 0 -x {4.0 0.0 4 ------- null}
- -t 11.411840135 -s 3 -d 0 -p ack -e 40 -c 0 -i 11 -a 0 -x {4.0 0.0 4 ------- null}
h -t 11.411840135 -s 3 -d 0 -p ack -e 40 -c 0 -i 11 -a 0 -x {4.0 0.0 -1 ------- null}
r -t 11.4119468166667 -s 3 -d 0 -p ack -e 40 -c 0 -i 11 -a 0 -x {4.0 0.0 4 ------- null}
+ -t 11.4119468166667 -s 0 -d 3 -p tcp -e 1040 -c 0 -i 15 -a 0 -x {0.0 4.0 9 ------- null}
- -t 11.4119468166667 -s 0 -d 3 -p tcp -e 1040 -c 0 -i 15 -a 0 -x {0.0 4.0 9 ------- null}
h -t 11.4119468166667 -s 0 -d 3 -p tcp -e 1040 -c 0 -i 15 -a 0 -x {0.0 4.0 -1 ------- null}
+ -t 11.4119468166667 -s 0 -d 3 -p tcp -e 1040 -c 0 -i 16 -a 0 -x {0.0 4.0 10 ------- null}
- -t 11.41472015 -s 0 -d 3 -p tcp -e 1040 -c 0 -i 16 -a 0 -x {0.0 4.0 10 ------- null}
h -t 11.41472015 -s 0 -d 3 -p tcp -e 1040 -c 0 -i 16 -a 0 -x {0.0 4.0 -1 ------- null}
- -t 11.414720165 -s 3 -d 1 -p tcp -e 1040 -c 0 -i 13 -a 0 -x {0.0 4.0 8 ------- null}
h -t 11.414720165 -s 3 -d 1 -p tcp -e 1040 -c 0 -i 13 -a 0 -x {0.0 4.0 -1 ------- null}
r -t 11.414720165 -s 0 -d 3 -p tcp -e 1040 -c 0 -i 15 -a 0 -x {0.0 4.0 9 ------- null}
+ -t 11.414720165 -s 3 -d 1 -p tcp -e 1040 -c 0 -i 15 -a 0 -x {0.0 4.0 9 ------- null}
r -t 11.4174934983333 -s 0 -d 3 -p tcp -e 1040 -c 0 -i 16 -a 0 -x {0.0 4.0 10 ------- null}
+ -t 11.4174934983333 -s 3 -d 1 -p tcp -e 1040 -c 0 -i 16 -a 0 -x {0.0 4.0 10 ------- null}
r -t 11.7451734683333 -s 2 -d 1 -p ack -e 40 -c 0 -i 14 -a 0 -x {4.0 0.0 5 ------- null}
+ -t 11.7451734683333 -s 1 -d 3 -p ack -e 40 -c 0 -i 14 -a 0 -x {4.0 0.0 5 ------- null}
- -t 11.7451734683333 -s 1 -d 3 -p ack -e 40 -c 0 -i 14 -a 0 -x {4.0 0.0 5 ------- null}
h -t 11.7451734683333 -s 1 -d 3 -p ack -e 40 -c 0 -i 14 -a 0 -x {4.0 0.0 -1 ------- null}
r -t 11.914720165 -s 3 -d 1 -p tcp -e 1040 -c 0 -i 12 -a 0 -x {0.0 4.0 7 ------- null}
+ -t 11.914720165 -s 1 -d 2 -p tcp -e 1040 -c 0 -i 12 -a 0 -x {0.0 4.0 7 ------- null}
- -t 11.914720165 -s 1 -d 2 -p tcp -e 1040 -c 0 -i 12 -a 0 -x {0.0 4.0 7 ------- null}
h -t 11.914720165 -s 1 -d 2 -p tcp -e 1040 -c 0 -i 12 -a 0 -x {0.0 4.0 -1 ------- null}
r -t 12.0756267816667 -s 1 -d 2 -p tcp -e 1040 -c 0 -i 9 -a 0 -x {0.0 4.0 6 ------- null}
+ -t 12.0756267816667 -s 2 -d 4 -p tcp -e 1040 -c 0 -i 9 -a 0 -x {0.0 4.0 6 ------- null}
- -t 12.0756267816667 -s 2 -d 4 -p tcp -e 1040 -c 0 -i 9 -a 0 -x {0.0 4.0 6 ------- null}
h -t 12.0756267816667 -s 2 -d 4 -p tcp -e 1040 -c 0 -i 9 -a 0 -x {0.0 4.0 -1 ------- null}
r -t 12.078400125 -s 2 -d 4 -p tcp -e 1040 -c 0 -i 9 -a 0 -x {0.0 4.0 6 ------- null}
+ -t 12.078400125 -s 4 -d 2 -p ack -e 40 -c 0 -i 17 -a 0 -x {4.0 0.0 6 ------- null}
- -t 12.078400125 -s 4 -d 2 -p ack -e 40 -c 0 -i 17 -a 0 -x {4.0 0.0 6 ------- null}
h -t 12.078400125 -s 4 -d 2 -p ack -e 40 -c 0 -i 17 -a 0 -x {4.0 0.0 -1 ------- null}
r -t 12.0785068016667 -s 4 -d 2 -p ack -e 40 -c 0 -i 17 -a 0 -x {4.0 0.0 6 ------- null}
+ -t 12.0785068016667 -s 2 -d 1 -p ack -e 40 -c 0 -i 17 -a 0 -x {4.0 0.0 6 ------- null}
- -t 12.0785068016667 -s 2 -d 1 -p ack -e 40 -c 0 -i 17 -a 0 -x {4.0 0.0 6 ------- null}
h -t 12.0785068016667 -s 2 -d 1 -p ack -e 40 -c 0 -i 17 -a 0 -x {4.0 0.0 -1 ------- null}
r -t 12.2785068016667 -s 1 -d 3 -p ack -e 40 -c 0 -i 14 -a 0 -x {4.0 0.0 5 ------- null}
+ -t 12.2785068016667 -s 3 -d 0 -p ack -e 40 -c 0 -i 14 -a 0 -x {4.0 0.0 5 ------- null}
- -t 12.2785068016667 -s 3 -d 0 -p ack -e 40 -c 0 -i 14 -a 0 -x {4.0 0.0 5 ------- null}
h -t 12.2785068016667 -s 3 -d 0 -p ack -e 40 -c 0 -i 14 -a 0 -x {4.0 0.0 -1 ------- null}
r -t 12.2786134833333 -s 3 -d 0 -p ack -e 40 -c 0 -i 14 -a 0 -x {4.0 0.0 5 ------- null}
+ -t 12.2786134833333 -s 0 -d 3 -p tcp -e 1040 -c 0 -i 18 -a 0 -x {0.0 4.0 11 ------- null}
- -t 12.2786134833333 -s 0 -d 3 -p tcp -e 1040 -c 0 -i 18 -a 0 -x {0.0 4.0 11 ------- null}
h -t 12.2786134833333 -s 0 -d 3 -p tcp -e 1040 -c 0 -i 18 -a 0 -x {0.0 4.0 -1 ------- null}
+ -t 12.2786134833333 -s 0 -d 3 -p tcp -e 1040 -c 0 -i 19 -a 0 -x {0.0 4.0 12 ------- null}
- -t 12.2813868166667 -s 0 -d 3 -p tcp -e 1040 -c 0 -i 19 -a 0 -x {0.0 4.0 12 ------- null}
h -t 12.2813868166667 -s 0 -d 3 -p tcp -e 1040 -c 0 -i 19 -a 0 -x {0.0 4.0 -1 ------- null}
- -t 12.2813868316667 -s 3 -d 1 -p tcp -e 1040 -c 0 -i 15 -a 0 -x {0.0 4.0 9 ------- null}
h -t 12.2813868316667 -s 3 -d 1 -p tcp -e 1040 -c 0 -i 15 -a 0 -x {0.0 4.0 -1 ------- null}
r -t 12.2813868316667 -s 0 -d 3 -p tcp -e 1040 -c 0 -i 18 -a 0 -x {0.0 4.0 11 ------- null}
+ -t 12.2813868316667 -s 3 -d 1 -p tcp -e 1040 -c 0 -i 18 -a 0 -x {0.0 4.0 11 ------- null}
r -t 12.284160165 -s 0 -d 3 -p tcp -e 1040 -c 0 -i 19 -a 0 -x {0.0 4.0 12 ------- null}
+ -t 12.284160165 -s 3 -d 1 -p tcp -e 1040 -c 0 -i 19 -a 0 -x {0.0 4.0 12 ------- null}
r -t 12.611840135 -s 2 -d 1 -p ack -e 40 -c 0 -i 17 -a 0 -x {4.0 0.0 6 ------- null}
+ -t 12.611840135 -s 1 -d 3 -p ack -e 40 -c 0 -i 17 -a 0 -x {4.0 0.0 6 ------- null}
- -t 12.611840135 -s 1 -d 3 -p ack -e 40 -c 0 -i 17 -a 0 -x {4.0 0.0 6 ------- null}
h -t 12.611840135 -s 1 -d 3 -p ack -e 40 -c 0 -i 17 -a 0 -x {4.0 0.0 -1 ------- null}
r -t 12.7813868316667 -s 3 -d 1 -p tcp -e 1040 -c 0 -i 13 -a 0 -x {0.0 4.0 8 ------- null}
+ -t 12.7813868316667 -s 1 -d 2 -p tcp -e 1040 -c 0 -i 13 -a 0 -x {0.0 4.0 8 ------- null}
- -t 12.7813868316667 -s 1 -d 2 -p tcp -e 1040 -c 0 -i 13 -a 0 -x {0.0 4.0 8 ------- null}
h -t 12.7813868316667 -s 1 -d 2 -p tcp -e 1040 -c 0 -i 13 -a 0 -x {0.0 4.0 -1 ------- null}
r -t 13.1451734683333 -s 1 -d 3 -p ack -e 40 -c 0 -i 17 -a 0 -x {4.0 0.0 6 ------- null}
+ -t 13.1451734683333 -s 3 -d 0 -p ack -e 40 -c 0 -i 17 -a 0 -x {4.0 0.0 6 ------- null}
- -t 13.1451734683333 -s 3 -d 0 -p ack -e 40 -c 0 -i 17 -a 0 -x {4.0 0.0 6 ------- null}
h -t 13.1451734683333 -s 3 -d 0 -p ack -e 40 -c 0 -i 17 -a 0 -x {4.0 0.0 -1 ------- null}
r -t 13.14528015 -s 3 -d 0 -p ack -e 40 -c 0 -i 17 -a 0 -x {4.0 0.0 6 ------- null}
+ -t 13.14528015 -s 0 -d 3 -p tcp -e 1040 -c 0 -i 20 -a 0 -x {0.0 4.0 13 ------- null}
- -t 13.14528015 -s 0 -d 3 -p tcp -e 1040 -c 0 -i 20 -a 0 -x {0.0 4.0 13 ------- null}
h -t 13.14528015 -s 0 -d 3 -p tcp -e 1040 -c 0 -i 20 -a 0 -x {0.0 4.0 -1 ------- null}
+ -t 13.14528015 -s 0 -d 3 -p tcp -e 1040 -c 0 -i 21 -a 0 -x {0.0 4.0 14 ------- null}
- -t 13.1480534833333 -s 0 -d 3 -p tcp -e 1040 -c 0 -i 21 -a 0 -x {0.0 4.0 14 ------- null}
h -t 13.1480534833333 -s 0 -d 3 -p tcp -e 1040 -c 0 -i 21 -a 0 -x {0.0 4.0 -1 ------- null}
- -t 13.1480534983333 -s 3 -d 1 -p tcp -e 1040 -c 0 -i 16 -a 0 -x {0.0 4.0 10 ------- null}
h -t 13.1480534983333 -s 3 -d 1 -p tcp -e 1040 -c 0 -i 16 -a 0 -x {0.0 4.0 -1 ------- null}
r -t 13.1480534983333 -s 0 -d 3 -p tcp -e 1040 -c 0 -i 20 -a 0 -x {0.0 4.0 13 ------- null}
+ -t 13.1480534983333 -s 3 -d 1 -p tcp -e 1040 -c 0 -i 20 -a 0 -x {0.0 4.0 13 ------- null}
r -t 13.1508268316667 -s 0 -d 3 -p tcp -e 1040 -c 0 -i 21 -a 0 -x {0.0 4.0 14 ------- null}
+ -t 13.1508268316667 -s 3 -d 1 -p tcp -e 1040 -c 0 -i 21 -a 0 -x {0.0 4.0 14 ------- null}
r -t 13.2813868316667 -s 1 -d 2 -p tcp -e 1040 -c 0 -i 12 -a 0 -x {0.0 4.0 7 ------- null}
+ -t 13.2813868316667 -s 2 -d 4 -p tcp -e 1040 -c 0 -i 12 -a 0 -x {0.0 4.0 7 ------- null}
- -t 13.2813868316667 -s 2 -d 4 -p tcp -e 1040 -c 0 -i 12 -a 0 -x {0.0 4.0 7 ------- null}
h -t 13.2813868316667 -s 2 -d 4 -p tcp -e 1040 -c 0 -i 12 -a 0 -x {0.0 4.0 -1 ------- null}
r -t 13.284160175 -s 2 -d 4 -p tcp -e 1040 -c 0 -i 12 -a 0 -x {0.0 4.0 7 ------- null}
+ -t 13.284160175 -s 4 -d 2 -p ack -e 40 -c 0 -i 22 -a 0 -x {4.0 0.0 7 ------- null}
- -t 13.284160175 -s 4 -d 2 -p ack -e 40 -c 0 -i 22 -a 0 -x {4.0 0.0 7 ------- null}
h -t 13.284160175 -s 4 -d 2 -p ack -e 40 -c 0 -i 22 -a 0 -x {4.0 0.0 -1 ------- null}
r -t 13.2842668516667 -s 4 -d 2 -p ack -e 40 -c 0 -i 22 -a 0 -x {4.0 0.0 7 ------- null}
+ -t 13.2842668516667 -s 2 -d 1 -p ack -e 40 -c 0 -i 22 -a 0 -x {4.0 0.0 7 ------- null}
- -t 13.2842668516667 -s 2 -d 1 -p ack -e 40 -c 0 -i 22 -a 0 -x {4.0 0.0 7 ------- null}
h -t 13.2842668516667 -s 2 -d 1 -p ack -e 40 -c 0 -i 22 -a 0 -x {4.0 0.0 -1 ------- null}
r -t 13.6480534983333 -s 3 -d 1 -p tcp -e 1040 -c 0 -i 15 -a 0 -x {0.0 4.0 9 ------- null}
+ -t 13.6480534983333 -s 1 -d 2 -p tcp -e 1040 -c 0 -i 15 -a 0 -x {0.0 4.0 9 ------- null}
- -t 13.6480534983333 -s 1 -d 2 -p tcp -e 1040 -c 0 -i 15 -a 0 -x {0.0 4.0 9 ------- null}
h -t 13.6480534983333 -s 1 -d 2 -p tcp -e 1040 -c 0 -i 15 -a 0 -x {0.0 4.0 -1 ------- null}
r -t 13.817600185 -s 2 -d 1 -p ack -e 40 -c 0 -i 22 -a 0 -x {4.0 0.0 7 ------- null}
+ -t 13.817600185 -s 1 -d 3 -p ack -e 40 -c 0 -i 22 -a 0 -x {4.0 0.0 7 ------- null}
- -t 13.817600185 -s 1 -d 3 -p ack -e 40 -c 0 -i 22 -a 0 -x {4.0 0.0 7 ------- null}
h -t 13.817600185 -s 1 -d 3 -p ack -e 40 -c 0 -i 22 -a 0 -x {4.0 0.0 -1 ------- null}
- -t 14.014720165 -s 3 -d 1 -p tcp -e 1040 -c 0 -i 18 -a 0 -x {0.0 4.0 11 ------- null}
h -t 14.014720165 -s 3 -d 1 -p tcp -e 1040 -c 0 -i 18 -a 0 -x {0.0 4.0 -1 ------- null}
r -t 14.1480534983333 -s 1 -d 2 -p tcp -e 1040 -c 0 -i 13 -a 0 -x {0.0 4.0 8 ------- null}
+ -t 14.1480534983333 -s 2 -d 4 -p tcp -e 1040 -c 0 -i 13 -a 0 -x {0.0 4.0 8 ------- null}
- -t 14.1480534983333 -s 2 -d 4 -p tcp -e 1040 -c 0 -i 13 -a 0 -x {0.0 4.0 8 ------- null}
h -t 14.1480534983333 -s 2 -d 4 -p tcp -e 1040 -c 0 -i 13 -a 0 -x {0.0 4.0 -1 ------- null}
r -t 14.1508268416667 -s 2 -d 4 -p tcp -e 1040 -c 0 -i 13 -a 0 -x {0.0 4.0 8 ------- null}
+ -t 14.1508268416667 -s 4 -d 2 -p ack -e 40 -c 0 -i 23 -a 0 -x {4.0 0.0 8 ------- null}
- -t 14.1508268416667 -s 4 -d 2 -p ack -e 40 -c 0 -i 23 -a 0 -x {4.0 0.0 8 ------- null}
h -t 14.1508268416667 -s 4 -d 2 -p ack -e 40 -c 0 -i 23 -a 0 -x {4.0 0.0 -1 ------- null}
r -t 14.1509335183333 -s 4 -d 2 -p ack -e 40 -c 0 -i 23 -a 0 -x {4.0 0.0 8 ------- null}
+ -t 14.1509335183333 -s 2 -d 1 -p ack -e 40 -c 0 -i 23 -a 0 -x {4.0 0.0 8 ------- null}
- -t 14.1509335183333 -s 2 -d 1 -p ack -e 40 -c 0 -i 23 -a 0 -x {4.0 0.0 8 ------- null}
h -t 14.1509335183333 -s 2 -d 1 -p ack -e 40 -c 0 -i 23 -a 0 -x {4.0 0.0 -1 ------- null}
r -t 14.3509335183333 -s 1 -d 3 -p ack -e 40 -c 0 -i 22 -a 0 -x {4.0 0.0 7 ------- null}
+ -t 14.3509335183333 -s 3 -d 0 -p ack -e 40 -c 0 -i 22 -a 0 -x {4.0 0.0 7 ------- null}
- -t 14.3509335183333 -s 3 -d 0 -p ack -e 40 -c 0 -i 22 -a 0 -x {4.0 0.0 7 ------- null}
h -t 14.3509335183333 -s 3 -d 0 -p ack -e 40 -c 0 -i 22 -a 0 -x {4.0 0.0 -1 ------- null}
r -t 14.3510402 -s 3 -d 0 -p ack -e 40 -c 0 -i 22 -a 0 -x {4.0 0.0 7 ------- null}
+ -t 14.3510402 -s 0 -d 3 -p tcp -e 1040 -c 0 -i 24 -a 0 -x {0.0 4.0 15 ------- null}
- -t 14.3510402 -s 0 -d 3 -p tcp -e 1040 -c 0 -i 24 -a 0 -x {0.0 4.0 15 ------- null}
h -t 14.3510402 -s 0 -d 3 -p tcp -e 1040 -c 0 -i 24 -a 0 -x {0.0 4.0 -1 ------- null}
+ -t 14.3510402 -s 0 -d 3 -p tcp -e 1040 -c 0 -i 25 -a 0 -x {0.0 4.0 16 ------- null}
- -t 14.3538135333333 -s 0 -d 3 -p tcp -e 1040 -c 0 -i 25 -a 0 -x {0.0 4.0 16 ------- null}
h -t 14.3538135333333 -s 0 -d 3 -p tcp -e 1040 -c 0 -i 25 -a 0 -x {0.0 4.0 -1 ------- null}
r -t 14.3538135483333 -s 0 -d 3 -p tcp -e 1040 -c 0 -i 24 -a 0 -x {0.0 4.0 15 ------- null}
+ -t 14.3538135483333 -s 3 -d 1 -p tcp -e 1040 -c 0 -i 24 -a 0 -x {0.0 4.0 15 ------- null}
r -t 14.3565868816667 -s 0 -d 3 -p tcp -e 1040 -c 0 -i 25 -a 0 -x {0.0 4.0 16 ------- null}
+ -t 14.3565868816667 -s 3 -d 1 -p tcp -e 1040 -c 0 -i 25 -a 0 -x {0.0 4.0 16 ------- null}
r -t 14.514720165 -s 3 -d 1 -p tcp -e 1040 -c 0 -i 16 -a 0 -x {0.0 4.0 10 ------- null}
+ -t 14.514720165 -s 1 -d 2 -p tcp -e 1040 -c 0 -i 16 -a 0 -x {0.0 4.0 10 ------- null}