+ 0.8 0 3 tcp 40 ------- 0 0.0 4.0 0 0
- 0.8 0 3 tcp 40 ------- 0 0.0 4.0 0 0
r 0.800107 0 3 tcp 40 ------- 0 0.0 4.0 0 0
+ 0.800107 3 1 tcp 40 ------- 0 0.0 4.0 0 0
- 0.800107 3 1 tcp 40 ------- 0 0.0 4.0 0 0
r 1.33344 3 1 tcp 40 ------- 0 0.0 4.0 0 0
+ 1.33344 1 2 tcp 40 ------- 0 0.0 4.0 0 0
- 1.33344 1 2 tcp 40 ------- 0 0.0 4.0 0 0
r 1.866773 1 2 tcp 40 ------- 0 0.0 4.0 0 0
+ 1.866773 2 4 tcp 40 ------- 0 0.0 4.0 0 0
- 1.866773 2 4 tcp 40 ------- 0 0.0 4.0 0 0
r 1.86688 2 4 tcp 40 ------- 0 0.0 4.0 0 0
+ 1.86688 4 2 ack 40 ------- 0 4.0 0.0 0 1
- 1.86688 4 2 ack 40 ------- 0 4.0 0.0 0 1
r 1.866987 4 2 ack 40 ------- 0 4.0 0.0 0 1
+ 1.866987 2 1 ack 40 ------- 0 4.0 0.0 0 1
- 1.866987 2 1 ack 40 ------- 0 4.0 0.0 0 1
r 2.40032 2 1 ack 40 ------- 0 4.0 0.0 0 1
+ 2.40032 1 3 ack 40 ------- 0 4.0 0.0 0 1
- 2.40032 1 3 ack 40 ------- 0 4.0 0.0 0 1
r 2.933653 1 3 ack 40 ------- 0 4.0 0.0 0 1
+ 2.933653 3 0 ack 40 ------- 0 4.0 0.0 0 1
- 2.933653 3 0 ack 40 ------- 0 4.0 0.0 0 1
r 2.93376 3 0 ack 40 ------- 0 4.0 0.0 0 1
+ 2.93376 0 3 tcp 1040 ------- 0 0.0 4.0 1 2
- 2.93376 0 3 tcp 1040 ------- 0 0.0 4.0 1 2
+ 2.93376 0 3 tcp 1040 ------- 0 0.0 4.0 2 3
- 2.936533 0 3 tcp 1040 ------- 0 0.0 4.0 2 3
r 2.936533 0 3 tcp 1040 ------- 0 0.0 4.0 1 2
+ 2.936533 3 1 tcp 1040 ------- 0 0.0 4.0 1 2
- 2.936533 3 1 tcp 1040 ------- 0 0.0 4.0 1 2
r 2.939307 0 3 tcp 1040 ------- 0 0.0 4.0 2 3
+ 2.939307 3 1 tcp 1040 ------- 0 0.0 4.0 2 3
- 3.8032 3 1 tcp 1040 ------- 0 0.0 4.0 2 3
r 4.3032 3 1 tcp 1040 ------- 0 0.0 4.0 1 2
+ 4.3032 1 2 tcp 1040 ------- 0 0.0 4.0 1 2
- 4.3032 1 2 tcp 1040 ------- 0 0.0 4.0 1 2
r 5.169867 3 1 tcp 1040 ------- 0 0.0 4.0 2 3
+ 5.169867 1 2 tcp 1040 ------- 0 0.0 4.0 2 3
- 5.169867 1 2 tcp 1040 ------- 0 0.0 4.0 2 3
r 5.669867 1 2 tcp 1040 ------- 0 0.0 4.0 1 2
+ 5.669867 2 4 tcp 1040 ------- 0 0.0 4.0 1 2
- 5.669867 2 4 tcp 1040 ------- 0 0.0 4.0 1 2
r 5.67264 2 4 tcp 1040 ------- 0 0.0 4.0 1 2
+ 5.67264 4 2 ack 40 ------- 0 4.0 0.0 1 4
- 5.67264 4 2 ack 40 ------- 0 4.0 0.0 1 4
r 5.672747 4 2 ack 40 ------- 0 4.0 0.0 1 4
+ 5.672747 2 1 ack 40 ------- 0 4.0 0.0 1 4
- 5.672747 2 1 ack 40 ------- 0 4.0 0.0 1 4
r 6.20608 2 1 ack 40 ------- 0 4.0 0.0 1 4
+ 6.20608 1 3 ack 40 ------- 0 4.0 0.0 1 4
- 6.20608 1 3 ack 40 ------- 0 4.0 0.0 1 4
r 6.536533 1 2 tcp 1040 ------- 0 0.0 4.0 2 3
+ 6.536533 2 4 tcp 1040 ------- 0 0.0 4.0 2 3
- 6.536533 2 4 tcp 1040 ------- 0 0.0 4.0 2 3
r 6.539307 2 4 tcp 1040 ------- 0 0.0 4.0 2 3
+ 6.539307 4 2 ack 40 ------- 0 4.0 0.0 2 5
- 6.539307 4 2 ack 40 ------- 0 4.0 0.0 2 5
r 6.539413 4 2 ack 40 ------- 0 4.0 0.0 2 5
+ 6.539413 2 1 ack 40 ------- 0 4.0 0.0 2 5
- 6.539413 2 1 ack 40 ------- 0 4.0 0.0 2 5
r 6.739413 1 3 ack 40 ------- 0 4.0 0.0 1 4
+ 6.739413 3 0 ack 40 ------- 0 4.0 0.0 1 4
- 6.739413 3 0 ack 40 ------- 0 4.0 0.0 1 4
r 6.73952 3 0 ack 40 ------- 0 4.0 0.0 1 4
+ 6.73952 0 3 tcp 1040 ------- 0 0.0 4.0 3 6
- 6.73952 0 3 tcp 1040 ------- 0 0.0 4.0 3 6
+ 6.73952 0 3 tcp 1040 ------- 0 0.0 4.0 4 7
- 6.742293 0 3 tcp 1040 ------- 0 0.0 4.0 4 7
r 6.742293 0 3 tcp 1040 ------- 0 0.0 4.0 3 6
+ 6.742293 3 1 tcp 1040 ------- 0 0.0 4.0 3 6
- 6.742293 3 1 tcp 1040 ------- 0 0.0 4.0 3 6
r 6.745067 0 3 tcp 1040 ------- 0 0.0 4.0 4 7
+ 6.745067 3 1 tcp 1040 ------- 0 0.0 4.0 4 7
r 7.072747 2 1 ack 40 ------- 0 4.0 0.0 2 5
+ 7.072747 1 3 ack 40 ------- 0 4.0 0.0 2 5
- 7.072747 1 3 ack 40 ------- 0 4.0 0.0 2 5
r 7.60608 1 3 ack 40 ------- 0 4.0 0.0 2 5
+ 7.60608 3 0 ack 40 ------- 0 4.0 0.0 2 5
- 7.60608 3 0 ack 40 ------- 0 4.0 0.0 2 5
r 7.606187 3 0 ack 40 ------- 0 4.0 0.0 2 5
+ 7.606187 0 3 tcp 1040 ------- 0 0.0 4.0 5 8
- 7.606187 0 3 tcp 1040 ------- 0 0.0 4.0 5 8
+ 7.606187 0 3 tcp 1040 ------- 0 0.0 4.0 6 9
- 7.60896 0 3 tcp 1040 ------- 0 0.0 4.0 6 9
- 7.60896 3 1 tcp 1040 ------- 0 0.0 4.0 4 7
r 7.60896 0 3 tcp 1040 ------- 0 0.0 4.0 5 8
+ 7.60896 3 1 tcp 1040 ------- 0 0.0 4.0 5 8
r 7.611733 0 3 tcp 1040 ------- 0 0.0 4.0 6 9
+ 7.611733 3 1 tcp 1040 ------- 0 0.0 4.0 6 9
r 8.10896 3 1 tcp 1040 ------- 0 0.0 4.0 3 6
+ 8.10896 1 2 tcp 1040 ------- 0 0.0 4.0 3 6
- 8.10896 1 2 tcp 1040 ------- 0 0.0 4.0 3 6
- 8.475627 3 1 tcp 1040 ------- 0 0.0 4.0 5 8
r 8.975627 3 1 tcp 1040 ------- 0 0.0 4.0 4 7
+ 8.975627 1 2 tcp 1040 ------- 0 0.0 4.0 4 7
- 8.975627 1 2 tcp 1040 ------- 0 0.0 4.0 4 7
- 9.342293 3 1 tcp 1040 ------- 0 0.0 4.0 6 9
r 9.475627 1 2 tcp 1040 ------- 0 0.0 4.0 3 6
+ 9.475627 2 4 tcp 1040 ------- 0 0.0 4.0 3 6
- 9.475627 2 4 tcp 1040 ------- 0 0.0 4.0 3 6
r 9.4784 2 4 tcp 1040 ------- 0 0.0 4.0 3 6
+ 9.4784 4 2 ack 40 ------- 0 4.0 0.0 3 10
- 9.4784 4 2 ack 40 ------- 0 4.0 0.0 3 10
r 9.478507 4 2 ack 40 ------- 0 4.0 0.0 3 10
+ 9.478507 2 1 ack 40 ------- 0 4.0 0.0 3 10
- 9.478507 2 1 ack 40 ------- 0 4.0 0.0 3 10
r 9.842293 3 1 tcp 1040 ------- 0 0.0 4.0 5 8
+ 9.842293 1 2 tcp 1040 ------- 0 0.0 4.0 5 8
- 9.842293 1 2 tcp 1040 ------- 0 0.0 4.0 5 8
r 10.01184 2 1 ack 40 ------- 0 4.0 0.0 3 10
+ 10.01184 1 3 ack 40 ------- 0 4.0 0.0 3 10
- 10.01184 1 3 ack 40 ------- 0 4.0 0.0 3 10
r 10.342293 1 2 tcp 1040 ------- 0 0.0 4.0 4 7
+ 10.342293 2 4 tcp 1040 ------- 0 0.0 4.0 4 7
- 10.342293 2 4 tcp 1040 ------- 0 0.0 4.0 4 7
r 10.345067 2 4 tcp 1040 ------- 0 0.0 4.0 4 7
+ 10.345067 4 2 ack 40 ------- 0 4.0 0.0 4 11
- 10.345067 4 2 ack 40 ------- 0 4.0 0.0 4 11
r 10.345173 4 2 ack 40 ------- 0 4.0 0.0 4 11
+ 10.345173 2 1 ack 40 ------- 0 4.0 0.0 4 11
- 10.345173 2 1 ack 40 ------- 0 4.0 0.0 4 11
r 10.545173 1 3 ack 40 ------- 0 4.0 0.0 3 10
+ 10.545173 3 0 ack 40 ------- 0 4.0 0.0 3 10
- 10.545173 3 0 ack 40 ------- 0 4.0 0.0 3 10
r 10.54528 3 0 ack 40 ------- 0 4.0 0.0 3 10
+ 10.54528 0 3 tcp 1040 ------- 0 0.0 4.0 7 12
- 10.54528 0 3 tcp 1040 ------- 0 0.0 4.0 7 12
+ 10.54528 0 3 tcp 1040 ------- 0 0.0 4.0 8 13
- 10.548053 0 3 tcp 1040 ------- 0 0.0 4.0 8 13
r 10.548053 0 3 tcp 1040 ------- 0 0.0 4.0 7 12
+ 10.548053 3 1 tcp 1040 ------- 0 0.0 4.0 7 12
- 10.548053 3 1 tcp 1040 ------- 0 0.0 4.0 7 12
r 10.550827 0 3 tcp 1040 ------- 0 0.0 4.0 8 13
+ 10.550827 3 1 tcp 1040 ------- 0 0.0 4.0 8 13
r 10.70896 3 1 tcp 1040 ------- 0 0.0 4.0 6 9
+ 10.70896 1 2 tcp 1040 ------- 0 0.0 4.0 6 9
- 10.70896 1 2 tcp 1040 ------- 0 0.0 4.0 6 9
r 10.878507 2 1 ack 40 ------- 0 4.0 0.0 4 11
+ 10.878507 1 3 ack 40 ------- 0 4.0 0.0 4 11
- 10.878507 1 3 ack 40 ------- 0 4.0 0.0 4 11
r 11.20896 1 2 tcp 1040 ------- 0 0.0 4.0 5 8
+ 11.20896 2 4 tcp 1040 ------- 0 0.0 4.0 5 8
- 11.20896 2 4 tcp 1040 ------- 0 0.0 4.0 5 8
r 11.211733 2 4 tcp 1040 ------- 0 0.0 4.0 5 8
+ 11.211733 4 2 ack 40 ------- 0 4.0 0.0 5 14
- 11.211733 4 2 ack 40 ------- 0 4.0 0.0 5 14
r 11.21184 4 2 ack 40 ------- 0 4.0 0.0 5 14
+ 11.21184 2 1 ack 40 ------- 0 4.0 0.0 5 14
- 11.21184 2 1 ack 40 ------- 0 4.0 0.0 5 14
r 11.41184 1 3 ack 40 ------- 0 4.0 0.0 4 11
+ 11.41184 3 0 ack 40 ------- 0 4.0 0.0 4 11
- 11.41184 3 0 ack 40 ------- 0 4.0 0.0 4 11
r 11.411947 3 0 ack 40 ------- 0 4.0 0.0 4 11
+ 11.411947 0 3 tcp 1040 ------- 0 0.0 4.0 9 15
- 11.411947 0 3 tcp 1040 ------- 0 0.0 4.0 9 15
+ 11.411947 0 3 tcp 1040 ------- 0 0.0 4.0 10 16
- 11.41472 0 3 tcp 1040 ------- 0 0.0 4.0 10 16
- 11.41472 3 1 tcp 1040 ------- 0 0.0 4.0 8 13
r 11.41472 0 3 tcp 1040 ------- 0 0.0 4.0 9 15
+ 11.41472 3 1 tcp 1040 ------- 0 0.0 4.0 9 15
r 11.417493 0 3 tcp 1040 ------- 0 0.0 4.0 10 16
+ 11.417493 3 1 tcp 1040 ------- 0 0.0 4.0 10 16
r 11.745173 2 1 ack 40 ------- 0 4.0 0.0 5 14
+ 11.745173 1 3 ack 40 ------- 0 4.0 0.0 5 14
- 11.745173 1 3 ack 40 ------- 0 4.0 0.0 5 14
r 11.91472 3 1 tcp 1040 ------- 0 0.0 4.0 7 12
+ 11.91472 1 2 tcp 1040 ------- 0 0.0 4.0 7 12
- 11.91472 1 2 tcp 1040 ------- 0 0.0 4.0 7 12
r 12.075627 1 2 tcp 1040 ------- 0 0.0 4.0 6 9
+ 12.075627 2 4 tcp 1040 ------- 0 0.0 4.0 6 9
- 12.075627 2 4 tcp 1040 ------- 0 0.0 4.0 6 9
r 12.0784 2 4 tcp 1040 ------- 0 0.0 4.0 6 9
+ 12.0784 4 2 ack 40 ------- 0 4.0 0.0 6 17
- 12.0784 4 2 ack 40 ------- 0 4.0 0.0 6 17
r 12.078507 4 2 ack 40 ------- 0 4.0 0.0 6 17
+ 12.078507 2 1 ack 40 ------- 0 4.0 0.0 6 17
- 12.078507 2 1 ack 40 ------- 0 4.0 0.0 6 17
r 12.278507 1 3 ack 40 ------- 0 4.0 0.0 5 14
+ 12.278507 3 0 ack 40 ------- 0 4.0 0.0 5 14
- 12.278507 3 0 ack 40 ------- 0 4.0 0.0 5 14
r 12.278613 3 0 ack 40 ------- 0 4.0 0.0 5 14
+ 12.278613 0 3 tcp 1040 ------- 0 0.0 4.0 11 18
- 12.278613 0 3 tcp 1040 ------- 0 0.0 4.0 11 18
+ 12.278613 0 3 tcp 1040 ------- 0 0.0 4.0 12 19
- 12.281387 0 3 tcp 1040 ------- 0 0.0 4.0 12 19
- 12.281387 3 1 tcp 1040 ------- 0 0.0 4.0 9 15
r 12.281387 0 3 tcp 1040 ------- 0 0.0 4.0 11 18
+ 12.281387 3 1 tcp 1040 ------- 0 0.0 4.0 11 18
r 12.28416 0 3 tcp 1040 ------- 0 0.0 4.0 12 19
+ 12.28416 3 1 tcp 1040 ------- 0 0.0 4.0 12 19
r 12.61184 2 1 ack 40 ------- 0 4.0 0.0 6 17
+ 12.61184 1 3 ack 40 ------- 0 4.0 0.0 6 17
- 12.61184 1 3 ack 40 ------- 0 4.0 0.0 6 17
r 12.781387 3 1 tcp 1040 ------- 0 0.0 4.0 8 13
+ 12.781387 1 2 tcp 1040 ------- 0 0.0 4.0 8 13
- 12.781387 1 2 tcp 1040 ------- 0 0.0 4.0 8 13
r 13.145173 1 3 ack 40 ------- 0 4.0 0.0 6 17
+ 13.145173 3 0 ack 40 ------- 0 4.0 0.0 6 17
- 13.145173 3 0 ack 40 ------- 0 4.0 0.0 6 17
r 13.14528 3 0 ack 40 ------- 0 4.0 0.0 6 17
+ 13.14528 0 3 tcp 1040 ------- 0 0.0 4.0 13 20
- 13.14528 0 3 tcp 1040 ------- 0 0.0 4.0 13 20
+ 13.14528 0 3 tcp 1040 ------- 0 0.0 4.0 14 21
- 13.148053 0 3 tcp 1040 ------- 0 0.0 4.0 14 21
- 13.148053 3 1 tcp 1040 ------- 0 0.0 4.0 10 16
r 13.148053 0 3 tcp 1040 ------- 0 0.0 4.0 13 20
+ 13.148053 3 1 tcp 1040 ------- 0 0.0 4.0 13 20
r 13.150827 0 3 tcp 1040 ------- 0 0.0 4.0 14 21
+ 13.150827 3 1 tcp 1040 ------- 0 0.0 4.0 14 21
r 13.281387 1 2 tcp 1040 ------- 0 0.0 4.0 7 12
+ 13.281387 2 4 tcp 1040 ------- 0 0.0 4.0 7 12
- 13.281387 2 4 tcp 1040 ------- 0 0.0 4.0 7 12
r 13.28416 2 4 tcp 1040 ------- 0 0.0 4.0 7 12
+ 13.28416 4 2 ack 40 ------- 0 4.0 0.0 7 22
- 13.28416 4 2 ack 40 ------- 0 4.0 0.0 7 22
r 13.284267 4 2 ack 40 ------- 0 4.0 0.0 7 22
+ 13.284267 2 1 ack 40 ------- 0 4.0 0.0 7 22
- 13.284267 2 1 ack 40 ------- 0 4.0 0.0 7 22
r 13.648053 3 1 tcp 1040 ------- 0 0.0 4.0 9 15
+ 13.648053 1 2 tcp 1040 ------- 0 0.0 4.0 9 15
- 13.648053 1 2 tcp 1040 ------- 0 0.0 4.0 9 15
r 13.8176 2 1 ack 40 ------- 0 4.0 0.0 7 22
+ 13.8176 1 3 ack 40 ------- 0 4.0 0.0 7 22
- 13.8176 1 3 ack 40 ------- 0 4.0 0.0 7 22
- 14.01472 3 1 tcp 1040 ------- 0 0.0 4.0 11 18
r 14.148053 1 2 tcp 1040 ------- 0 0.0 4.0 8 13
+ 14.148053 2 4 tcp 1040 ------- 0 0.0 4.0 8 13
- 14.148053 2 4 tcp 1040 ------- 0 0.0 4.0 8 13
r 14.150827 2 4 tcp 1040 ------- 0 0.0 4.0 8 13
+ 14.150827 4 2 ack 40 ------- 0 4.0 0.0 8 23
- 14.150827 4 2 ack 40 ------- 0 4.0 0.0 8 23
r 14.150934 4 2 ack 40 ------- 0 4.0 0.0 8 23
+ 14.150934 2 1 ack 40 ------- 0 4.0 0.0 8 23
- 14.150934 2 1 ack 40 ------- 0 4.0 0.0 8 23
r 14.350934 1 3 ack 40 ------- 0 4.0 0.0 7 22
+ 14.350934 3 0 ack 40 ------- 0 4.0 0.0 7 22
- 14.350934 3 0 ack 40 ------- 0 4.0 0.0 7 22
r 14.35104 3 0 ack 40 ------- 0 4.0 0.0 7 22
+ 14.35104 0 3 tcp 1040 ------- 0 0.0 4.0 15 24
- 14.35104 0 3 tcp 1040 ------- 0 0.0 4.0 15 24
+ 14.35104 0 3 tcp 1040 ------- 0 0.0 4.0 16 25
- 14.353814 0 3 tcp 1040 ------- 0 0.0 4.0 16 25
r 14.353814 0 3 tcp 1040 ------- 0 0.0 4.0 15 24
+ 14.353814 3 1 tcp 1040 ------- 0 0.0 4.0 15 24
r 14.356587 0 3 tcp 1040 ------- 0 0.0 4.0 16 25
+ 14.356587 3 1 tcp 1040 ------- 0 0.0 4.0 16 25
r 14.51472 3 1 tcp 1040 ------- 0 0.0 4.0 10 16
+ 14.51472 1 2 tcp 1040 ------- 0 0.0 4.0 10 16
- 14.51472 1 2 tcp 1040 ------- 0 0.0 4.0 10 16
r 14.684267 2 1 ack 40 ------- 0 4.0 0.0 8 23
+ 14.684267 1 3 ack 40 ------- 0 4.0 0.0 8 23
- 14.684267 1 3 ack 40 ------- 0 4.0 0.0 8 23
- 14.881387 3 1 tcp 1040 ------- 0 0.0 4.0 12 19
r 15.01472 1 2 tcp 1040 ------- 0 0.0 4.0 9 15
+ 15.01472 2 4 tcp 1040 ------- 0 0.0 4.0 9 15
- 15.01472 2 4 tcp 1040 ------- 0 0.0 4.0 9 15
r 15.017494 2 4 tcp 1040 ------- 0 0.0 4.0 9 15
+ 15.017494 4 2 ack 40 ------- 0 4.0 0.0 9 26
- 15.017494 4 2 ack 40 ------- 0 4.0 0.0 9 26
r 15.0176 4 2 ack 40 ------- 0 4.0 0.0 9 26
+ 15.0176 2 1 ack 40 ------- 0 4.0 0.0 9 26
- 15.0176 2 1 ack 40 ------- 0 4.0 0.0 9 26
r 15.2176 1 3 ack 40 ------- 0 4.0 0.0 8 23
+ 15.2176 3 0 ack 40 ------- 0 4.0 0.0 8 23
- 15.2176 3 0 ack 40 ------- 0 4.0 0.0 8 23
r 15.217707 3 0 ack 40 ------- 0 4.0 0.0 8 23
+ 15.217707 0 3 tcp 1040 ------- 0 0.0 4.0 17 27
- 15.217707 0 3 tcp 1040 ------- 0 0.0 4.0 17 27
+ 15.217707 0 3 tcp 1040 ------- 0 0.0 4.0 18 28
- 15.22048 0 3 tcp 1040 ------- 0 0.0 4.0 18 28
r 15.22048 0 3 tcp 1040 ------- 0 0.0 4.0 17 27
+ 15.22048 3 1 tcp 1040 ------- 0 0.0 4.0 17 27
r 15.223254 0 3 tcp 1040 ------- 0 0.0 4.0 18 28
+ 15.223254 3 1 tcp 1040 ------- 0 0.0 4.0 18 28
d 15.223254 3 1 tcp 1040 ------- 0 0.0 4.0 18 28
r 15.381387 3 1 tcp 1040 ------- 0 0.0 4.0 11 18
+ 15.381387 1 2 tcp 1040 ------- 0 0.0 4.0 11 18
- 15.381387 1 2 tcp 1040 ------- 0 0.0 4.0 11 18
r 15.550934 2 1 ack 40 ------- 0 4.0 0.0 9 26
+ 15.550934 1 3 ack 40 ------- 0 4.0 0.0 9 26
- 15.550934 1 3 ack 40 ------- 0 4.0 0.0 9 26
- 15.748053 3 1 tcp 1040 ------- 0 0.0 4.0 13 20
r 15.881387 1 2 tcp 1040 ------- 0 0.0 4.0 10 16
+ 15.881387 2 4 tcp 1040 ------- 0 0.0 4.0 10 16
- 15.881387 2 4 tcp 1040 ------- 0 0.0 4.0 10 16
r 15.88416 2 4 tcp 1040 ------- 0 0.0 4.0 10 16
+ 15.88416 4 2 ack 40 ------- 0 4.0 0.0 10 29
- 15.88416 4 2 ack 40 ------- 0 4.0 0.0 10 29
r 15.884267 4 2 ack 40 ------- 0 4.0 0.0 10 29
+ 15.884267 2 1 ack 40 ------- 0 4.0 0.0 10 29
- 15.884267 2 1 ack 40 ------- 0 4.0 0.0 10 29
r 16.084267 1 3 ack 40 ------- 0 4.0 0.0 9 26
+ 16.084267 3 0 ack 40 ------- 0 4.0 0.0 9 26
- 16.084267 3 0 ack 40 ------- 0 4.0 0.0 9 26
r 16.084374 3 0 ack 40 ------- 0 4.0 0.0 9 26
+ 16.084374 0 3 tcp 1040 ------- 0 0.0 4.0 19 30
- 16.084374 0 3 tcp 1040 ------- 0 0.0 4.0 19 30
+ 16.084374 0 3 tcp 1040 ------- 0 0.0 4.0 20 31
- 16.087147 0 3 tcp 1040 ------- 0 0.0 4.0 20 31
r 16.087147 0 3 tcp 1040 ------- 0 0.0 4.0 19 30
+ 16.087147 3 1 tcp 1040 ------- 0 0.0 4.0 19 30
r 16.08992 0 3 tcp 1040 ------- 0 0.0 4.0 20 31
+ 16.08992 3 1 tcp 1040 ------- 0 0.0 4.0 20 31
d 16.08992 3 1 tcp 1040 ------- 0 0.0 4.0 20 31
r 16.248053 3 1 tcp 1040 ------- 0 0.0 4.0 12 19
+ 16.248053 1 2 tcp 1040 ------- 0 0.0 4.0 12 19
- 16.248053 1 2 tcp 1040 ------- 0 0.0 4.0 12 19
r 16.4176 2 1 ack 40 ------- 0 4.0 0.0 10 29
+ 16.4176 1 3 ack 40 ------- 0 4.0 0.0 10 29
- 16.4176 1 3 ack 40 ------- 0 4.0 0.0 10 29
- 16.61472 3 1 tcp 1040 ------- 0 0.0 4.0 14 21
r 16.748053 1 2 tcp 1040 ------- 0 0.0 4.0 11 18
+ 16.748053 2 4 tcp 1040 ------- 0 0.0 4.0 11 18
- 16.748053 2 4 tcp 1040 ------- 0 0.0 4.0 11 18
r 16.750827 2 4 tcp 1040 ------- 0 0.0 4.0 11 18
+ 16.750827 4 2 ack 40 ------- 0 4.0 0.0 11 32
- 16.750827 4 2 ack 40 ------- 0 4.0 0.0 11 32
r 16.750934 4 2 ack 40 ------- 0 4.0 0.0 11 32
+ 16.750934 2 1 ack 40 ------- 0 4.0 0.0 11 32
- 16.750934 2 1 ack 40 ------- 0 4.0 0.0 11 32
r 16.950934 1 3 ack 40 ------- 0 4.0 0.0 10 29
+ 16.950934 3 0 ack 40 ------- 0 4.0 0.0 10 29
- 16.950934 3 0 ack 40 ------- 0 4.0 0.0 10 29
r 16.95104 3 0 ack 40 ------- 0 4.0 0.0 10 29
+ 16.95104 0 3 tcp 1040 ------- 0 0.0 4.0 21 33
- 16.95104 0 3 tcp 1040 ------- 0 0.0 4.0 21 33
+ 16.95104 0 3 tcp 1040 ------- 0 0.0 4.0 22 34
- 16.953814 0 3 tcp 1040 ------- 0 0.0 4.0 22 34
r 16.953814 0 3 tcp 1040 ------- 0 0.0 4.0 21 33
+ 16.953814 3 1 tcp 1040 ------- 0 0.0 4.0 21 33
r 16.956587 0 3 tcp 1040 ------- 0 0.0 4.0 22 34
+ 16.956587 3 1 tcp 1040 ------- 0 0.0 4.0 22 34
d 16.956587 3 1 tcp 1040 ------- 0 0.0 4.0 22 34
r 17.11472 3 1 tcp 1040 ------- 0 0.0 4.0 13 20
+ 17.11472 1 2 tcp 1040 ------- 0 0.0 4.0 13 20
- 17.11472 1 2 tcp 1040 ------- 0 0.0 4.0 13 20
r 17.284267 2 1 ack 40 ------- 0 4.0 0.0 11 32
+ 17.284267 1 3 ack 40 ------- 0 4.0 0.0 11 32
- 17.284267 1 3 ack 40 ------- 0 4.0 0.0 11 32
- 17.481387 3 1 tcp 1040 ------- 0 0.0 4.0 15 24
r 17.61472 1 2 tcp 1040 ------- 0 0.0 4.0 12 19
+ 17.61472 2 4 tcp 1040 ------- 0 0.0 4.0 12 19
- 17.61472 2 4 tcp 1040 ------- 0 0.0 4.0 12 19
r 17.617494 2 4 tcp 1040 ------- 0 0.0 4.0 12 19
+ 17.617494 4 2 ack 40 ------- 0 4.0 0.0 12 35
- 17.617494 4 2 ack 40 ------- 0 4.0 0.0 12 35
r 17.6176 4 2 ack 40 ------- 0 4.0 0.0 12 35
+ 17.6176 2 1 ack 40 ------- 0 4.0 0.0 12 35
- 17.6176 2 1 ack 40 ------- 0 4.0 0.0 12 35
r 17.8176 1 3 ack 40 ------- 0 4.0 0.0 11 32
+ 17.8176 3 0 ack 40 ------- 0 4.0 0.0 11 32
- 17.8176 3 0 ack 40 ------- 0 4.0 0.0 11 32
r 17.817707 3 0 ack 40 ------- 0 4.0 0.0 11 32
+ 17.817707 0 3 tcp 1040 ------- 0 0.0 4.0 23 36
- 17.817707 0 3 tcp 1040 ------- 0 0.0 4.0 23 36
+ 17.817707 0 3 tcp 1040 ------- 0 0.0 4.0 24 37
- 17.82048 0 3 tcp 1040 ------- 0 0.0 4.0 24 37
r 17.82048 0 3 tcp 1040 ------- 0 0.0 4.0 23 36
+ 17.82048 3 1 tcp 1040 ------- 0 0.0 4.0 23 36
r 17.823254 0 3 tcp 1040 ------- 0 0.0 4.0 24 37
+ 17.823254 3 1 tcp 1040 ------- 0 0.0 4.0 24 37
d 17.823254 3 1 tcp 1040 ------- 0 0.0 4.0 24 37
r 17.981387 3 1 tcp 1040 ------- 0 0.0 4.0 14 21
+ 17.981387 1 2 tcp 1040 ------- 0 0.0 4.0 14 21
- 17.981387 1 2 tcp 1040 ------- 0 0.0 4.0 14 21
r 18.150934 2 1 ack 40 ------- 0 4.0 0.0 12 35
+ 18.150934 1 3 ack 40 ------- 0 4.0 0.0 12 35
- 18.150934 1 3 ack 40 ------- 0 4.0 0.0 12 35
- 18.348053 3 1 tcp 1040 ------- 0 0.0 4.0 16 25
r 18.481387 1 2 tcp 1040 ------- 0 0.0 4.0 13 20
+ 18.481387 2 4 tcp 1040 ------- 0 0.0 4.0 13 20
- 18.481387 2 4 tcp 1040 ------- 0 0.0 4.0 13 20
r 18.48416 2 4 tcp 1040 ------- 0 0.0 4.0 13 20
+ 18.48416 4 2 ack 40 ------- 0 4.0 0.0 13 38
- 18.48416 4 2 ack 40 ------- 0 4.0 0.0 13 38
r 18.484267 4 2 ack 40 ------- 0 4.0 0.0 13 38
+ 18.484267 2 1 ack 40 ------- 0 4.0 0.0 13 38
- 18.484267 2 1 ack 40 ------- 0 4.0 0.0 13 38
r 18.684267 1 3 ack 40 ------- 0 4.0 0.0 12 35
+ 18.684267 3 0 ack 40 ------- 0 4.0 0.0 12 35
- 18.684267 3 0 ack 40 ------- 0 4.0 0.0 12 35
r 18.684374 3 0 ack 40 ------- 0 4.0 0.0 12 35
+ 18.684374 0 3 tcp 1040 ------- 0 0.0 4.0 25 39
- 18.684374 0 3 tcp 1040 ------- 0 0.0 4.0 25 39
+ 18.684374 0 3 tcp 1040 ------- 0 0.0 4.0 26 40
- 18.687147 0 3 tcp 1040 ------- 0 0.0 4.0 26 40
r 18.687147 0 3 tcp 1040 ------- 0 0.0 4.0 25 39
+ 18.687147 3 1 tcp 1040 ------- 0 0.0 4.0 25 39
r 18.68992 0 3 tcp 1040 ------- 0 0.0 4.0 26 40
+ 18.68992 3 1 tcp 1040 ------- 0 0.0 4.0 26 40
d 18.68992 3 1 tcp 1040 ------- 0 0.0 4.0 26 40
r 18.848053 3 1 tcp 1040 ------- 0 0.0 4.0 15 24
+ 18.848053 1 2 tcp 1040 ------- 0 0.0 4.0 15 24
- 18.848053 1 2 tcp 1040 ------- 0 0.0 4.0 15 24
r 19.0176 2 1 ack 40 ------- 0 4.0 0.0 13 38
+ 19.0176 1 3 ack 40 ------- 0 4.0 0.0 13 38
- 19.0176 1 3 ack 40 ------- 0 4.0 0.0 13 38
- 19.21472 3 1 tcp 1040 ------- 0 0.0 4.0 17 27
r 19.348053 1 2 tcp 1040 ------- 0 0.0 4.0 14 21
+ 19.348053 2 4 tcp 1040 ------- 0 0.0 4.0 14 21
- 19.348053 2 4 tcp 1040 ------- 0 0.0 4.0 14 21
r 19.350827 2 4 tcp 1040 ------- 0 0.0 4.0 14 21
+ 19.350827 4 2 ack 40 ------- 0 4.0 0.0 14 41
- 19.350827 4 2 ack 40 ------- 0 4.0 0.0 14 41
r 19.350934 4 2 ack 40 ------- 0 4.0 0.0 14 41
+ 19.350934 2 1 ack 40 ------- 0 4.0 0.0 14 41
- 19.350934 2 1 ack 40 ------- 0 4.0 0.0 14 41
r 19.550934 1 3 ack 40 ------- 0 4.0 0.0 13 38
+ 19.550934 3 0 ack 40 ------- 0 4.0 0.0 13 38
- 19.550934 3 0 ack 40 ------- 0 4.0 0.0 13 38
r 19.55104 3 0 ack 40 ------- 0 4.0 0.0 13 38
+ 19.55104 0 3 tcp 1040 ------- 0 0.0 4.0 27 42
- 19.55104 0 3 tcp 1040 ------- 0 0.0 4.0 27 42
+ 19.55104 0 3 tcp 1040 ------- 0 0.0 4.0 28 43
- 19.553814 0 3 tcp 1040 ------- 0 0.0 4.0 28 43
r 19.553814 0 3 tcp 1040 ------- 0 0.0 4.0 27 42
+ 19.553814 3 1 tcp 1040 ------- 0 0.0 4.0 27 42
r 19.556587 0 3 tcp 1040 ------- 0 0.0 4.0 28 43
+ 19.556587 3 1 tcp 1040 ------- 0 0.0 4.0 28 43
d 19.556587 3 1 tcp 1040 ------- 0 0.0 4.0 28 43
r 19.71472 3 1 tcp 1040 ------- 0 0.0 4.0 16 25
+ 19.71472 1 2 tcp 1040 ------- 0 0.0 4.0 16 25
- 19.71472 1 2 tcp 1040 ------- 0 0.0 4.0 16 25
r 19.884267 2 1 ack 40 ------- 0 4.0 0.0 14 41
+ 19.884267 1 3 ack 40 ------- 0 4.0 0.0 14 41
- 19.884267 1 3 ack 40 ------- 0 4.0 0.0 14 41
- 20.081387 3 1 tcp 1040 ------- 0 0.0 4.0 19 30
r 20.21472 1 2 tcp 1040 ------- 0 0.0 4.0 15 24
+ 20.21472 2 4 tcp 1040 ------- 0 0.0 4.0 15 24
- 20.21472 2 4 tcp 1040 ------- 0 0.0 4.0 15 24
r 20.217494 2 4 tcp 1040 ------- 0 0.0 4.0 15 24
+ 20.217494 4 2 ack 40 ------- 0 4.0 0.0 15 44
- 20.217494 4 2 ack 40 ------- 0 4.0 0.0 15 44
r 20.2176 4 2 ack 40 ------- 0 4.0 0.0 15 44
+ 20.2176 2 1 ack 40 ------- 0 4.0 0.0 15 44
- 20.2176 2 1 ack 40 ------- 0 4.0 0.0 15 44
r 20.4176 1 3 ack 40 ------- 0 4.0 0.0 14 41
+ 20.4176 3 0 ack 40 ------- 0 4.0 0.0 14 41
- 20.4176 3 0 ack 40 ------- 0 4.0 0.0 14 41
r 20.417707 3 0 ack 40 ------- 0 4.0 0.0 14 41
+ 20.417707 0 3 tcp 1040 ------- 0 0.0 4.0 29 45
- 20.417707 0 3 tcp 1040 ------- 0 0.0 4.0 29 45
+ 20.417707 0 3 tcp 1040 ------- 0 0.0 4.0 30 46
- 20.42048 0 3 tcp 1040 ------- 0 0.0 4.0 30 46
r 20.42048 0 3 tcp 1040 ------- 0 0.0 4.0 29 45
+ 20.42048 3 1 tcp 1040 ------- 0 0.0 4.0 29 45
r 20.423254 0 3 tcp 1040 ------- 0 0.0 4.0 30 46
+ 20.423254 3 1 tcp 1040 ------- 0 0.0 4.0 30 46
d 20.423254 3 1 tcp 1040 ------- 0 0.0 4.0 30 46
r 20.581387 3 1 tcp 1040 ------- 0 0.0 4.0 17 27
+ 20.581387 1 2 tcp 1040 ------- 0 0.0 4.0 17 27
- 20.581387 1 2 tcp 1040 ------- 0 0.0 4.0 17 27
r 20.750934 2 1 ack 40 ------- 0 4.0 0.0 15 44
+ 20.750934 1 3 ack 40 ------- 0 4.0 0.0 15 44
- 20.750934 1 3 ack 40 ------- 0 4.0 0.0 15 44
- 20.948053 3 1 tcp 1040 ------- 0 0.0 4.0 21 33
r 21.081387 1 2 tcp 1040 ------- 0 0.0 4.0 16 25
+ 21.081387 2 4 tcp 1040 ------- 0 0.0 4.0 16 25
- 21.081387 2 4 tcp 1040 ------- 0 0.0 4.0 16 25
r 21.08416 2 4 tcp 1040 ------- 0 0.0 4.0 16 25
+ 21.08416 4 2 ack 40 ------- 0 4.0 0.0 16 47
- 21.08416 4 2 ack 40 ------- 0 4.0 0.0 16 47
r 21.084267 4 2 ack 40 ------- 0 4.0 0.0 16 47
+ 21.084267 2 1 ack 40 ------- 0 4.0 0.0 16 47
- 21.084267 2 1 ack 40 ------- 0 4.0 0.0 16 47
r 21.284267 1 3 ack 40 ------- 0 4.0 0.0 15 44
+ 21.284267 3 0 ack 40 ------- 0 4.0 0.0 15 44
- 21.284267 3 0 ack 40 ------- 0 4.0 0.0 15 44
r 21.284374 3 0 ack 40 ------- 0 4.0 0.0 15 44
+ 21.284374 0 3 tcp 1040 ------- 0 0.0 4.0 31 48
- 21.284374 0 3 tcp 1040 ------- 0 0.0 4.0 31 48
+ 21.284374 0 3 tcp 1040 ------- 0 0.0 4.0 32 49
- 21.287147 0 3 tcp 1040 ------- 0 0.0 4.0 32 49
r 21.287147 0 3 tcp 1040 ------- 0 0.0 4.0 31 48
+ 21.287147 3 1 tcp 1040 ------- 0 0.0 4.0 31 48
r 21.28992 0 3 tcp 1040 ------- 0 0.0 4.0 32 49
+ 21.28992 3 1 tcp 1040 ------- 0 0.0 4.0 32 49
d 21.28992 3 1 tcp 1040 ------- 0 0.0 4.0 32 49
r 21.448053 3 1 tcp 1040 ------- 0 0.0 4.0 19 30
+ 21.448053 1 2 tcp 1040 ------- 0 0.0 4.0 19 30
- 21.448053 1 2 tcp 1040 ------- 0 0.0 4.0 19 30
r 21.6176 2 1 ack 40 ------- 0 4.0 0.0 16 47
+ 21.6176 1 3 ack 40 ------- 0 4.0 0.0 16 47
- 21.6176 1 3 ack 40 ------- 0 4.0 0.0 16 47
- 21.81472 3 1 tcp 1040 ------- 0 0.0 4.0 23 36
r 21.948053 1 2 tcp 1040 ------- 0 0.0 4.0 17 27
+ 21.948053 2 4 tcp 1040 ------- 0 0.0 4.0 17 27
- 21.948053 2 4 tcp 1040 ------- 0 0.0 4.0 17 27
r 21.950827 2 4 tcp 1040 ------- 0 0.0 4.0 17 27
+ 21.950827 4 2 ack 40 ------- 0 4.0 0.0 17 50
- 21.950827 4 2 ack 40 ------- 0 4.0 0.0 17 50
r 21.950934 4 2 ack 40 ------- 0 4.0 0.0 17 50
+ 21.950934 2 1 ack 40 ------- 0 4.0 0.0 17 50
- 21.950934 2 1 ack 40 ------- 0 4.0 0.0 17 50
r 22.150934 1 3 ack 40 ------- 0 4.0 0.0 16 47
+ 22.150934 3 0 ack 40 ------- 0 4.0 0.0 16 47
- 22.150934 3 0 ack 40 ------- 0 4.0 0.0 16 47
r 22.15104 3 0 ack 40 ------- 0 4.0 0.0 16 47
+ 22.15104 0 3 tcp 1040 ------- 0 0.0 4.0 33 51
- 22.15104 0 3 tcp 1040 ------- 0 0.0 4.0 33 51
+ 22.15104 0 3 tcp 1040 ------- 0 0.0 4.0 34 52
- 22.153814 0 3 tcp 1040 ------- 0 0.0 4.0 34 52
r 22.153814 0 3 tcp 1040 ------- 0 0.0 4.0 33 51
+ 22.153814 3 1 tcp 1040 ------- 0 0.0 4.0 33 51
r 22.156587 0 3 tcp 1040 ------- 0 0.0 4.0 34 52
+ 22.156587 3 1 tcp 1040 ------- 0 0.0 4.0 34 52
d 22.156587 3 1 tcp 1040 ------- 0 0.0 4.0 34 52
r 22.31472 3 1 tcp 1040 ------- 0 0.0 4.0 21 33
+ 22.31472 1 2 tcp 1040 ------- 0 0.0 4.0 21 33
- 22.31472 1 2 tcp 1040 ------- 0 0.0 4.0 21 33
r 22.484267 2 1 ack 40 ------- 0 4.0 0.0 17 50
+ 22.484267 1 3 ack 40 ------- 0 4.0 0.0 17 50
- 22.484267 1 3 ack 40 ------- 0 4.0 0.0 17 50
- 22.681387 3 1 tcp 1040 ------- 0 0.0 4.0 25 39
r 22.81472 1 2 tcp 1040 ------- 0 0.0 4.0 19 30
+ 22.81472 2 4 tcp 1040 ------- 0 0.0 4.0 19 30
- 22.81472 2 4 tcp 1040 ------- 0 0.0 4.0 19 30
r 22.817494 2 4 tcp 1040 ------- 0 0.0 4.0 19 30
+ 22.817494 4 2 ack 48 ------- 0 4.0 0.0 17 53
- 22.817494 4 2 ack 48 ------- 0 4.0 0.0 17 53
r 22.817622 4 2 ack 48 ------- 0 4.0 0.0 17 53
+ 22.817622 2 1 ack 48 ------- 0 4.0 0.0 17 53
- 22.817622 2 1 ack 48 ------- 0 4.0 0.0 17 53
r 23.0176 1 3 ack 40 ------- 0 4.0 0.0 17 50
+ 23.0176 3 0 ack 40 ------- 0 4.0 0.0 17 50
- 23.0176 3 0 ack 40 ------- 0 4.0 0.0 17 50
r 23.017707 3 0 ack 40 ------- 0 4.0 0.0 17 50
+ 23.017707 0 3 tcp 1040 ------- 0 0.0 4.0 35 54
- 23.017707 0 3 tcp 1040 ------- 0 0.0 4.0 35 54
+ 23.017707 0 3 tcp 1040 ------- 0 0.0 4.0 36 55
- 23.02048 0 3 tcp 1040 ------- 0 0.0 4.0 36 55
r 23.02048 0 3 tcp 1040 ------- 0 0.0 4.0 35 54
+ 23.02048 3 1 tcp 1040 ------- 0 0.0 4.0 35 54
r 23.023254 0 3 tcp 1040 ------- 0 0.0 4.0 36 55
+ 23.023254 3 1 tcp 1040 ------- 0 0.0 4.0 36 55
d 23.023254 3 1 tcp 1040 ------- 0 0.0 4.0 36 55
r 23.181387 3 1 tcp 1040 ------- 0 0.0 4.0 23 36
+ 23.181387 1 2 tcp 1040 ------- 0 0.0 4.0 23 36
- 23.181387 1 2 tcp 1040 ------- 0 0.0 4.0 23 36
r 23.357622 2 1 ack 48 ------- 0 4.0 0.0 17 53
+ 23.357622 1 3 ack 48 ------- 0 4.0 0.0 17 53
- 23.357622 1 3 ack 48 ------- 0 4.0 0.0 17 53
- 23.548053 3 1 tcp 1040 ------- 0 0.0 4.0 27 42
r 23.681387 1 2 tcp 1040 ------- 0 0.0 4.0 21 33
+ 23.681387 2 4 tcp 1040 ------- 0 0.0 4.0 21 33
- 23.681387 2 4 tcp 1040 ------- 0 0.0 4.0 21 33
r 23.68416 2 4 tcp 1040 ------- 0 0.0 4.0 21 33
+ 23.68416 4 2 ack 56 ------- 0 4.0 0.0 17 56
- 23.68416 4 2 ack 56 ------- 0 4.0 0.0 17 56
r 23.68431 4 2 ack 56 ------- 0 4.0 0.0 17 56
+ 23.68431 2 1 ack 56 ------- 0 4.0 0.0 17 56
- 23.68431 2 1 ack 56 ------- 0 4.0 0.0 17 56
r 23.897622 1 3 ack 48 ------- 0 4.0 0.0 17 53
+ 23.897622 3 0 ack 48 ------- 0 4.0 0.0 17 53
- 23.897622 3 0 ack 48 ------- 0 4.0 0.0 17 53
r 23.89775 3 0 ack 48 ------- 0 4.0 0.0 17 53
+ 23.89775 0 3 tcp 1040 ------- 0 0.0 4.0 37 57
- 23.89775 0 3 tcp 1040 ------- 0 0.0 4.0 37 57
r 23.900523 0 3 tcp 1040 ------- 0 0.0 4.0 37 57
+ 23.900523 3 1 tcp 1040 ------- 0 0.0 4.0 37 57
r 24.048053 3 1 tcp 1040 ------- 0 0.0 4.0 25 39
+ 24.048053 1 2 tcp 1040 ------- 0 0.0 4.0 25 39
- 24.048053 1 2 tcp 1040 ------- 0 0.0 4.0 25 39
r 24.230976 2 1 ack 56 ------- 0 4.0 0.0 17 56
+ 24.230976 1 3 ack 56 ------- 0 4.0 0.0 17 56
- 24.230976 1 3 ack 56 ------- 0 4.0 0.0 17 56
- 24.41472 3 1 tcp 1040 ------- 0 0.0 4.0 29 45
r 24.548053 1 2 tcp 1040 ------- 0 0.0 4.0 23 36
+ 24.548053 2 4 tcp 1040 ------- 0 0.0 4.0 23 36
- 24.548053 2 4 tcp 1040 ------- 0 0.0 4.0 23 36
r 24.550827 2 4 tcp 1040 ------- 0 0.0 4.0 23 36
+ 24.550827 4 2 ack 64 ------- 0 4.0 0.0 17 58
- 24.550827 4 2 ack 64 ------- 0 4.0 0.0 17 58
r 24.550998 4 2 ack 64 ------- 0 4.0 0.0 17 58
+ 24.550998 2 1 ack 64 ------- 0 4.0 0.0 17 58
- 24.550998 2 1 ack 64 ------- 0 4.0 0.0 17 58
r 24.777643 1 3 ack 56 ------- 0 4.0 0.0 17 56
+ 24.777643 3 0 ack 56 ------- 0 4.0 0.0 17 56
- 24.777643 3 0 ack 56 ------- 0 4.0 0.0 17 56
r 24.777792 3 0 ack 56 ------- 0 4.0 0.0 17 56
+ 24.777792 0 3 tcp 1040 ------- 0 0.0 4.0 38 59
- 24.777792 0 3 tcp 1040 ------- 0 0.0 4.0 38 59
r 24.780566 0 3 tcp 1040 ------- 0 0.0 4.0 38 59
+ 24.780566 3 1 tcp 1040 ------- 0 0.0 4.0 38 59
r 24.91472 3 1 tcp 1040 ------- 0 0.0 4.0 27 42
+ 24.91472 1 2 tcp 1040 ------- 0 0.0 4.0 27 42
- 24.91472 1 2 tcp 1040 ------- 0 0.0 4.0 27 42
r 25.104331 2 1 ack 64 ------- 0 4.0 0.0 17 58
+ 25.104331 1 3 ack 64 ------- 0 4.0 0.0 17 58
- 25.104331 1 3 ack 64 ------- 0 4.0 0.0 17 58
- 25.281387 3 1 tcp 1040 ------- 0 0.0 4.0 31 48
r 25.41472 1 2 tcp 1040 ------- 0 0.0 4.0 25 39
+ 25.41472 2 4 tcp 1040 ------- 0 0.0 4.0 25 39
- 25.41472 2 4 tcp 1040 ------- 0 0.0 4.0 25 39
r 25.417494 2 4 tcp 1040 ------- 0 0.0 4.0 25 39
+ 25.417494 4 2 ack 64 ------- 0 4.0 0.0 17 60
- 25.417494 4 2 ack 64 ------- 0 4.0 0.0 17 60
r 25.417664 4 2 ack 64 ------- 0 4.0 0.0 17 60
+ 25.417664 2 1 ack 64 ------- 0 4.0 0.0 17 60
- 25.417664 2 1 ack 64 ------- 0 4.0 0.0 17 60
r 25.657664 1 3 ack 64 ------- 0 4.0 0.0 17 58
+ 25.657664 3 0 ack 64 ------- 0 4.0 0.0 17 58
- 25.657664 3 0 ack 64 ------- 0 4.0 0.0 17 58
r 25.657835 3 0 ack 64 ------- 0 4.0 0.0 17 58
+ 25.657835 0 3 tcp 1040 ---A--- 0 0.0 4.0 18 61
- 25.657835 0 3 tcp 1040 ---A--- 0 0.0 4.0 18 61
r 25.660608 0 3 tcp 1040 ---A--- 0 0.0 4.0 18 61
+ 25.660608 3 1 tcp 1040 ---A--- 0 0.0 4.0 18 61
r 25.781387 3 1 tcp 1040 ------- 0 0.0 4.0 29 45
+ 25.781387 1 2 tcp 1040 ------- 0 0.0 4.0 29 45
- 25.781387 1 2 tcp 1040 ------- 0 0.0 4.0 29 45
r 25.970998 2 1 ack 64 ------- 0 4.0 0.0 17 60
+ 25.970998 1 3 ack 64 ------- 0 4.0 0.0 17 60
- 25.970998 1 3 ack 64 ------- 0 4.0 0.0 17 60
- 26.148053 3 1 tcp 1040 ------- 0 0.0 4.0 33 51
r 26.281387 1 2 tcp 1040 ------- 0 0.0 4.0 27 42
+ 26.281387 2 4 tcp 1040 ------- 0 0.0 4.0 27 42
- 26.281387 2 4 tcp 1040 ------- 0 0.0 4.0 27 42
r 26.28416 2 4 tcp 1040 ------- 0 0.0 4.0 27 42
+ 26.28416 4 2 ack 64 ------- 0 4.0 0.0 17 62
- 26.28416 4 2 ack 64 ------- 0 4.0 0.0 17 62
r 26.284331 4 2 ack 64 ------- 0 4.0 0.0 17 62
+ 26.284331 2 1 ack 64 ------- 0 4.0 0.0 17 62
- 26.284331 2 1 ack 64 ------- 0 4.0 0.0 17 62
r 26.524331 1 3 ack 64 ------- 0 4.0 0.0 17 60
+ 26.524331 3 0 ack 64 ------- 0 4.0 0.0 17 60
- 26.524331 3 0 ack 64 ------- 0 4.0 0.0 17 60
r 26.524502 3 0 ack 64 ------- 0 4.0 0.0 17 60
r 26.648053 3 1 tcp 1040 ------- 0 0.0 4.0 31 48
+ 26.648053 1 2 tcp 1040 ------- 0 0.0 4.0 31 48
- 26.648053 1 2 tcp 1040 ------- 0 0.0 4.0 31 48
r 26.837664 2 1 ack 64 ------- 0 4.0 0.0 17 62
+ 26.837664 1 3 ack 64 ------- 0 4.0 0.0 17 62
- 26.837664 1 3 ack 64 ------- 0 4.0 0.0 17 62
- 27.01472 3 1 tcp 1040 ------- 0 0.0 4.0 35 54
r 27.148053 1 2 tcp 1040 ------- 0 0.0 4.0 29 45
+ 27.148053 2 4 tcp 1040 ------- 0 0.0 4.0 29 45