V -t * -v 1.0a5 -a 0
A -t * -n 1 -p 0 -o 0x7fffffff -c 30 -a 1
A -t * -h 1 -m 1073741823 -s 0
n -t * -a 0 -s 0 -S UP -v circle -c black -i black
n -t * -a 1 -s 1 -S UP -v circle -c black -i black
n -t * -a 2 -s 2 -S UP -v circle -c black -i black
l -t * -s 0 -d 2 -S UP -r 10000000 -D 0.29999999999999999 -c black
l -t * -s 1 -d 2 -S UP -r 5000000 -D 0.20000000000000001 -c black
+ -t 0.1 -s 0 -d 2 -p cbr -e 210 -c 0 -i 0 -a 0 -x {0.0 2.1 0 ------- null}
- -t 0.1 -s 0 -d 2 -p cbr -e 210 -c 0 -i 0 -a 0 -x {0.0 2.1 0 ------- null}
h -t 0.1 -s 0 -d 2 -p cbr -e 210 -c 0 -i 0 -a 0 -x {0.0 2.1 -1 ------- null}
+ -t 0.1 -s 1 -d 2 -p cbr -e 210 -c 0 -i 1 -a 0 -x {1.0 2.1 0 ------- null}
- -t 0.1 -s 1 -d 2 -p cbr -e 210 -c 0 -i 1 -a 0 -x {1.0 2.1 0 ------- null}
h -t 0.1 -s 1 -d 2 -p cbr -e 210 -c 0 -i 1 -a 0 -x {1.0 2.1 -1 ------- null}
+ -t 0.10375 -s 0 -d 2 -p cbr -e 210 -c 0 -i 2 -a 0 -x {0.0 2.1 1 ------- null}
- -t 0.10375 -s 0 -d 2 -p cbr -e 210 -c 0 -i 2 -a 0 -x {0.0 2.1 1 ------- null}
h -t 0.10375 -s 0 -d 2 -p cbr -e 210 -c 0 -i 2 -a 0 -x {0.0 2.1 -1 ------- null}
+ -t 0.10375 -s 1 -d 2 -p cbr -e 210 -c 0 -i 3 -a 0 -x {1.0 2.1 1 ------- null}
- -t 0.10375 -s 1 -d 2 -p cbr -e 210 -c 0 -i 3 -a 0 -x {1.0 2.1 1 ------- null}
h -t 0.10375 -s 1 -d 2 -p cbr -e 210 -c 0 -i 3 -a 0 -x {1.0 2.1 -1 ------- null}
+ -t 0.1075 -s 0 -d 2 -p cbr -e 210 -c 0 -i 4 -a 0 -x {0.0 2.1 2 ------- null}
- -t 0.1075 -s 0 -d 2 -p cbr -e 210 -c 0 -i 4 -a 0 -x {0.0 2.1 2 ------- null}
h -t 0.1075 -s 0 -d 2 -p cbr -e 210 -c 0 -i 4 -a 0 -x {0.0 2.1 -1 ------- null}
+ -t 0.1075 -s 1 -d 2 -p cbr -e 210 -c 0 -i 5 -a 0 -x {1.0 2.1 2 ------- null}
- -t 0.1075 -s 1 -d 2 -p cbr -e 210 -c 0 -i 5 -a 0 -x {1.0 2.1 2 ------- null}
h -t 0.1075 -s 1 -d 2 -p cbr -e 210 -c 0 -i 5 -a 0 -x {1.0 2.1 -1 ------- null}
+ -t 0.11125 -s 0 -d 2 -p cbr -e 210 -c 0 -i 6 -a 0 -x {0.0 2.1 3 ------- null}
- -t 0.11125 -s 0 -d 2 -p cbr -e 210 -c 0 -i 6 -a 0 -x {0.0 2.1 3 ------- null}
h -t 0.11125 -s 0 -d 2 -p cbr -e 210 -c 0 -i 6 -a 0 -x {0.0 2.1 -1 ------- null}
+ -t 0.11125 -s 1 -d 2 -p cbr -e 210 -c 0 -i 7 -a 0 -x {1.0 2.1 3 ------- null}
- -t 0.11125 -s 1 -d 2 -p cbr -e 210 -c 0 -i 7 -a 0 -x {1.0 2.1 3 ------- null}
h -t 0.11125 -s 1 -d 2 -p cbr -e 210 -c 0 -i 7 -a 0 -x {1.0 2.1 -1 ------- null}
+ -t 0.115 -s 0 -d 2 -p cbr -e 210 -c 0 -i 8 -a 0 -x {0.0 2.1 4 ------- null}
- -t 0.115 -s 0 -d 2 -p cbr -e 210 -c 0 -i 8 -a 0 -x {0.0 2.1 4 ------- null}
h -t 0.115 -s 0 -d 2 -p cbr -e 210 -c 0 -i 8 -a 0 -x {0.0 2.1 -1 ------- null}
+ -t 0.115 -s 1 -d 2 -p cbr -e 210 -c 0 -i 9 -a 0 -x {1.0 2.1 4 ------- null}
- -t 0.115 -s 1 -d 2 -p cbr -e 210 -c 0 -i 9 -a 0 -x {1.0 2.1 4 ------- null}
h -t 0.115 -s 1 -d 2 -p cbr -e 210 -c 0 -i 9 -a 0 -x {1.0 2.1 -1 ------- null}
+ -t 0.11875 -s 0 -d 2 -p cbr -e 210 -c 0 -i 10 -a 0 -x {0.0 2.1 5 ------- null}
- -t 0.11875 -s 0 -d 2 -p cbr -e 210 -c 0 -i 10 -a 0 -x {0.0 2.1 5 ------- null}
h -t 0.11875 -s 0 -d 2 -p cbr -e 210 -c 0 -i 10 -a 0 -x {0.0 2.1 -1 ------- null}
+ -t 0.11875 -s 1 -d 2 -p cbr -e 210 -c 0 -i 11 -a 0 -x {1.0 2.1 5 ------- null}
- -t 0.11875 -s 1 -d 2 -p cbr -e 210 -c 0 -i 11 -a 0 -x {1.0 2.1 5 ------- null}
h -t 0.11875 -s 1 -d 2 -p cbr -e 210 -c 0 -i 11 -a 0 -x {1.0 2.1 -1 ------- null}
+ -t 0.1225 -s 0 -d 2 -p cbr -e 210 -c 0 -i 12 -a 0 -x {0.0 2.1 6 ------- null}
- -t 0.1225 -s 0 -d 2 -p cbr -e 210 -c 0 -i 12 -a 0 -x {0.0 2.1 6 ------- null}
h -t 0.1225 -s 0 -d 2 -p cbr -e 210 -c 0 -i 12 -a 0 -x {0.0 2.1 -1 ------- null}
+ -t 0.1225 -s 1 -d 2 -p cbr -e 210 -c 0 -i 13 -a 0 -x {1.0 2.1 6 ------- null}
- -t 0.1225 -s 1 -d 2 -p cbr -e 210 -c 0 -i 13 -a 0 -x {1.0 2.1 6 ------- null}
h -t 0.1225 -s 1 -d 2 -p cbr -e 210 -c 0 -i 13 -a 0 -x {1.0 2.1 -1 ------- null}
+ -t 0.12625 -s 0 -d 2 -p cbr -e 210 -c 0 -i 14 -a 0 -x {0.0 2.1 7 ------- null}
- -t 0.12625 -s 0 -d 2 -p cbr -e 210 -c 0 -i 14 -a 0 -x {0.0 2.1 7 ------- null}
h -t 0.12625 -s 0 -d 2 -p cbr -e 210 -c 0 -i 14 -a 0 -x {0.0 2.1 -1 ------- null}
+ -t 0.12625 -s 1 -d 2 -p cbr -e 210 -c 0 -i 15 -a 0 -x {1.0 2.1 7 ------- null}
- -t 0.12625 -s 1 -d 2 -p cbr -e 210 -c 0 -i 15 -a 0 -x {1.0 2.1 7 ------- null}
h -t 0.12625 -s 1 -d 2 -p cbr -e 210 -c 0 -i 15 -a 0 -x {1.0 2.1 -1 ------- null}
+ -t 0.13 -s 0 -d 2 -p cbr -e 210 -c 0 -i 16 -a 0 -x {0.0 2.1 8 ------- null}
- -t 0.13 -s 0 -d 2 -p cbr -e 210 -c 0 -i 16 -a 0 -x {0.0 2.1 8 ------- null}
h -t 0.13 -s 0 -d 2 -p cbr -e 210 -c 0 -i 16 -a 0 -x {0.0 2.1 -1 ------- null}
+ -t 0.13 -s 1 -d 2 -p cbr -e 210 -c 0 -i 17 -a 0 -x {1.0 2.1 8 ------- null}
- -t 0.13 -s 1 -d 2 -p cbr -e 210 -c 0 -i 17 -a 0 -x {1.0 2.1 8 ------- null}
h -t 0.13 -s 1 -d 2 -p cbr -e 210 -c 0 -i 17 -a 0 -x {1.0 2.1 -1 ------- null}
+ -t 0.13375 -s 0 -d 2 -p cbr -e 210 -c 0 -i 18 -a 0 -x {0.0 2.1 9 ------- null}
- -t 0.13375 -s 0 -d 2 -p cbr -e 210 -c 0 -i 18 -a 0 -x {0.0 2.1 9 ------- null}
h -t 0.13375 -s 0 -d 2 -p cbr -e 210 -c 0 -i 18 -a 0 -x {0.0 2.1 -1 ------- null}
+ -t 0.13375 -s 1 -d 2 -p cbr -e 210 -c 0 -i 19 -a 0 -x {1.0 2.1 9 ------- null}
- -t 0.13375 -s 1 -d 2 -p cbr -e 210 -c 0 -i 19 -a 0 -x {1.0 2.1 9 ------- null}
h -t 0.13375 -s 1 -d 2 -p cbr -e 210 -c 0 -i 19 -a 0 -x {1.0 2.1 -1 ------- null}
+ -t 0.1375 -s 0 -d 2 -p cbr -e 210 -c 0 -i 20 -a 0 -x {0.0 2.1 10 ------- null}
- -t 0.1375 -s 0 -d 2 -p cbr -e 210 -c 0 -i 20 -a 0 -x {0.0 2.1 10 ------- null}
h -t 0.1375 -s 0 -d 2 -p cbr -e 210 -c 0 -i 20 -a 0 -x {0.0 2.1 -1 ------- null}
+ -t 0.1375 -s 1 -d 2 -p cbr -e 210 -c 0 -i 21 -a 0 -x {1.0 2.1 10 ------- null}
- -t 0.1375 -s 1 -d 2 -p cbr -e 210 -c 0 -i 21 -a 0 -x {1.0 2.1 10 ------- null}
h -t 0.1375 -s 1 -d 2 -p cbr -e 210 -c 0 -i 21 -a 0 -x {1.0 2.1 -1 ------- null}
+ -t 0.14125 -s 0 -d 2 -p cbr -e 210 -c 0 -i 22 -a 0 -x {0.0 2.1 11 ------- null}
- -t 0.14125 -s 0 -d 2 -p cbr -e 210 -c 0 -i 22 -a 0 -x {0.0 2.1 11 ------- null}
h -t 0.14125 -s 0 -d 2 -p cbr -e 210 -c 0 -i 22 -a 0 -x {0.0 2.1 -1 ------- null}
+ -t 0.14125 -s 1 -d 2 -p cbr -e 210 -c 0 -i 23 -a 0 -x {1.0 2.1 11 ------- null}
- -t 0.14125 -s 1 -d 2 -p cbr -e 210 -c 0 -i 23 -a 0 -x {1.0 2.1 11 ------- null}
h -t 0.14125 -s 1 -d 2 -p cbr -e 210 -c 0 -i 23 -a 0 -x {1.0 2.1 -1 ------- null}
+ -t 0.145 -s 0 -d 2 -p cbr -e 210 -c 0 -i 24 -a 0 -x {0.0 2.1 12 ------- null}
- -t 0.145 -s 0 -d 2 -p cbr -e 210 -c 0 -i 24 -a 0 -x {0.0 2.1 12 ------- null}
h -t 0.145 -s 0 -d 2 -p cbr -e 210 -c 0 -i 24 -a 0 -x {0.0 2.1 -1 ------- null}
+ -t 0.145 -s 1 -d 2 -p cbr -e 210 -c 0 -i 25 -a 0 -x {1.0 2.1 12 ------- null}
- -t 0.145 -s 1 -d 2 -p cbr -e 210 -c 0 -i 25 -a 0 -x {1.0 2.1 12 ------- null}
h -t 0.145 -s 1 -d 2 -p cbr -e 210 -c 0 -i 25 -a 0 -x {1.0 2.1 -1 ------- null}
+ -t 0.14875 -s 0 -d 2 -p cbr -e 210 -c 0 -i 26 -a 0 -x {0.0 2.1 13 ------- null}
- -t 0.14875 -s 0 -d 2 -p cbr -e 210 -c 0 -i 26 -a 0 -x {0.0 2.1 13 ------- null}
h -t 0.14875 -s 0 -d 2 -p cbr -e 210 -c 0 -i 26 -a 0 -x {0.0 2.1 -1 ------- null}
+ -t 0.14875 -s 1 -d 2 -p cbr -e 210 -c 0 -i 27 -a 0 -x {1.0 2.1 13 ------- null}
- -t 0.14875 -s 1 -d 2 -p cbr -e 210 -c 0 -i 27 -a 0 -x {1.0 2.1 13 ------- null}
h -t 0.14875 -s 1 -d 2 -p cbr -e 210 -c 0 -i 27 -a 0 -x {1.0 2.1 -1 ------- null}
+ -t 0.1525 -s 0 -d 2 -p cbr -e 210 -c 0 -i 28 -a 0 -x {0.0 2.1 14 ------- null}
- -t 0.1525 -s 0 -d 2 -p cbr -e 210 -c 0 -i 28 -a 0 -x {0.0 2.1 14 ------- null}
h -t 0.1525 -s 0 -d 2 -p cbr -e 210 -c 0 -i 28 -a 0 -x {0.0 2.1 -1 ------- null}
+ -t 0.1525 -s 1 -d 2 -p cbr -e 210 -c 0 -i 29 -a 0 -x {1.0 2.1 14 ------- null}
- -t 0.1525 -s 1 -d 2 -p cbr -e 210 -c 0 -i 29 -a 0 -x {1.0 2.1 14 ------- null}
h -t 0.1525 -s 1 -d 2 -p cbr -e 210 -c 0 -i 29 -a 0 -x {1.0 2.1 -1 ------- null}
+ -t 0.15625 -s 0 -d 2 -p cbr -e 210 -c 0 -i 30 -a 0 -x {0.0 2.1 15 ------- null}
- -t 0.15625 -s 0 -d 2 -p cbr -e 210 -c 0 -i 30 -a 0 -x {0.0 2.1 15 ------- null}
h -t 0.15625 -s 0 -d 2 -p cbr -e 210 -c 0 -i 30 -a 0 -x {0.0 2.1 -1 ------- null}
+ -t 0.15625 -s 1 -d 2 -p cbr -e 210 -c 0 -i 31 -a 0 -x {1.0 2.1 15 ------- null}
- -t 0.15625 -s 1 -d 2 -p cbr -e 210 -c 0 -i 31 -a 0 -x {1.0 2.1 15 ------- null}
h -t 0.15625 -s 1 -d 2 -p cbr -e 210 -c 0 -i 31 -a 0 -x {1.0 2.1 -1 ------- null}
+ -t 0.16 -s 0 -d 2 -p cbr -e 210 -c 0 -i 32 -a 0 -x {0.0 2.1 16 ------- null}
- -t 0.16 -s 0 -d 2 -p cbr -e 210 -c 0 -i 32 -a 0 -x {0.0 2.1 16 ------- null}
h -t 0.16 -s 0 -d 2 -p cbr -e 210 -c 0 -i 32 -a 0 -x {0.0 2.1 -1 ------- null}
+ -t 0.16 -s 1 -d 2 -p cbr -e 210 -c 0 -i 33 -a 0 -x {1.0 2.1 16 ------- null}
- -t 0.16 -s 1 -d 2 -p cbr -e 210 -c 0 -i 33 -a 0 -x {1.0 2.1 16 ------- null}
h -t 0.16 -s 1 -d 2 -p cbr -e 210 -c 0 -i 33 -a 0 -x {1.0 2.1 -1 ------- null}
+ -t 0.16375 -s 0 -d 2 -p cbr -e 210 -c 0 -i 34 -a 0 -x {0.0 2.1 17 ------- null}
- -t 0.16375 -s 0 -d 2 -p cbr -e 210 -c 0 -i 34 -a 0 -x {0.0 2.1 17 ------- null}
h -t 0.16375 -s 0 -d 2 -p cbr -e 210 -c 0 -i 34 -a 0 -x {0.0 2.1 -1 ------- null}
+ -t 0.16375 -s 1 -d 2 -p cbr -e 210 -c 0 -i 35 -a 0 -x {1.0 2.1 17 ------- null}
- -t 0.16375 -s 1 -d 2 -p cbr -e 210 -c 0 -i 35 -a 0 -x {1.0 2.1 17 ------- null}
h -t 0.16375 -s 1 -d 2 -p cbr -e 210 -c 0 -i 35 -a 0 -x {1.0 2.1 -1 ------- null}
+ -t 0.1675 -s 0 -d 2 -p cbr -e 210 -c 0 -i 36 -a 0 -x {0.0 2.1 18 ------- null}
- -t 0.1675 -s 0 -d 2 -p cbr -e 210 -c 0 -i 36 -a 0 -x {0.0 2.1 18 ------- null}
h -t 0.1675 -s 0 -d 2 -p cbr -e 210 -c 0 -i 36 -a 0 -x {0.0 2.1 -1 ------- null}
+ -t 0.1675 -s 1 -d 2 -p cbr -e 210 -c 0 -i 37 -a 0 -x {1.0 2.1 18 ------- null}
- -t 0.1675 -s 1 -d 2 -p cbr -e 210 -c 0 -i 37 -a 0 -x {1.0 2.1 18 ------- null}
h -t 0.1675 -s 1 -d 2 -p cbr -e 210 -c 0 -i 37 -a 0 -x {1.0 2.1 -1 ------- null}
+ -t 0.17125 -s 0 -d 2 -p cbr -e 210 -c 0 -i 38 -a 0 -x {0.0 2.1 19 ------- null}
- -t 0.17125 -s 0 -d 2 -p cbr -e 210 -c 0 -i 38 -a 0 -x {0.0 2.1 19 ------- null}
h -t 0.17125 -s 0 -d 2 -p cbr -e 210 -c 0 -i 38 -a 0 -x {0.0 2.1 -1 ------- null}
+ -t 0.17125 -s 1 -d 2 -p cbr -e 210 -c 0 -i 39 -a 0 -x {1.0 2.1 19 ------- null}
- -t 0.17125 -s 1 -d 2 -p cbr -e 210 -c 0 -i 39 -a 0 -x {1.0 2.1 19 ------- null}
h -t 0.17125 -s 1 -d 2 -p cbr -e 210 -c 0 -i 39 -a 0 -x {1.0 2.1 -1 ------- null}
+ -t 0.175 -s 0 -d 2 -p cbr -e 210 -c 0 -i 40 -a 0 -x {0.0 2.1 20 ------- null}
- -t 0.175 -s 0 -d 2 -p cbr -e 210 -c 0 -i 40 -a 0 -x {0.0 2.1 20 ------- null}
h -t 0.175 -s 0 -d 2 -p cbr -e 210 -c 0 -i 40 -a 0 -x {0.0 2.1 -1 ------- null}
+ -t 0.175 -s 1 -d 2 -p cbr -e 210 -c 0 -i 41 -a 0 -x {1.0 2.1 20 ------- null}
- -t 0.175 -s 1 -d 2 -p cbr -e 210 -c 0 -i 41 -a 0 -x {1.0 2.1 20 ------- null}
h -t 0.175 -s 1 -d 2 -p cbr -e 210 -c 0 -i 41 -a 0 -x {1.0 2.1 -1 ------- null}
+ -t 0.17875 -s 0 -d 2 -p cbr -e 210 -c 0 -i 42 -a 0 -x {0.0 2.1 21 ------- null}
- -t 0.17875 -s 0 -d 2 -p cbr -e 210 -c 0 -i 42 -a 0 -x {0.0 2.1 21 ------- null}
h -t 0.17875 -s 0 -d 2 -p cbr -e 210 -c 0 -i 42 -a 0 -x {0.0 2.1 -1 ------- null}
+ -t 0.17875 -s 1 -d 2 -p cbr -e 210 -c 0 -i 43 -a 0 -x {1.0 2.1 21 ------- null}
- -t 0.17875 -s 1 -d 2 -p cbr -e 210 -c 0 -i 43 -a 0 -x {1.0 2.1 21 ------- null}
h -t 0.17875 -s 1 -d 2 -p cbr -e 210 -c 0 -i 43 -a 0 -x {1.0 2.1 -1 ------- null}
+ -t 0.1825 -s 0 -d 2 -p cbr -e 210 -c 0 -i 44 -a 0 -x {0.0 2.1 22 ------- null}
- -t 0.1825 -s 0 -d 2 -p cbr -e 210 -c 0 -i 44 -a 0 -x {0.0 2.1 22 ------- null}
h -t 0.1825 -s 0 -d 2 -p cbr -e 210 -c 0 -i 44 -a 0 -x {0.0 2.1 -1 ------- null}
+ -t 0.1825 -s 1 -d 2 -p cbr -e 210 -c 0 -i 45 -a 0 -x {1.0 2.1 22 ------- null}
- -t 0.1825 -s 1 -d 2 -p cbr -e 210 -c 0 -i 45 -a 0 -x {1.0 2.1 22 ------- null}
h -t 0.1825 -s 1 -d 2 -p cbr -e 210 -c 0 -i 45 -a 0 -x {1.0 2.1 -1 ------- null}
+ -t 0.18625 -s 0 -d 2 -p cbr -e 210 -c 0 -i 46 -a 0 -x {0.0 2.1 23 ------- null}
- -t 0.18625 -s 0 -d 2 -p cbr -e 210 -c 0 -i 46 -a 0 -x {0.0 2.1 23 ------- null}
h -t 0.18625 -s 0 -d 2 -p cbr -e 210 -c 0 -i 46 -a 0 -x {0.0 2.1 -1 ------- null}
+ -t 0.18625 -s 1 -d 2 -p cbr -e 210 -c 0 -i 47 -a 0 -x {1.0 2.1 23 ------- null}
- -t 0.18625 -s 1 -d 2 -p cbr -e 210 -c 0 -i 47 -a 0 -x {1.0 2.1 23 ------- null}
h -t 0.18625 -s 1 -d 2 -p cbr -e 210 -c 0 -i 47 -a 0 -x {1.0 2.1 -1 ------- null}
+ -t 0.19 -s 0 -d 2 -p cbr -e 210 -c 0 -i 48 -a 0 -x {0.0 2.1 24 ------- null}
- -t 0.19 -s 0 -d 2 -p cbr -e 210 -c 0 -i 48 -a 0 -x {0.0 2.1 24 ------- null}
h -t 0.19 -s 0 -d 2 -p cbr -e 210 -c 0 -i 48 -a 0 -x {0.0 2.1 -1 ------- null}
+ -t 0.19 -s 1 -d 2 -p cbr -e 210 -c 0 -i 49 -a 0 -x {1.0 2.1 24 ------- null}
- -t 0.19 -s 1 -d 2 -p cbr -e 210 -c 0 -i 49 -a 0 -x {1.0 2.1 24 ------- null}
h -t 0.19 -s 1 -d 2 -p cbr -e 210 -c 0 -i 49 -a 0 -x {1.0 2.1 -1 ------- null}
+ -t 0.19375 -s 0 -d 2 -p cbr -e 210 -c 0 -i 50 -a 0 -x {0.0 2.1 25 ------- null}
- -t 0.19375 -s 0 -d 2 -p cbr -e 210 -c 0 -i 50 -a 0 -x {0.0 2.1 25 ------- null}
h -t 0.19375 -s 0 -d 2 -p cbr -e 210 -c 0 -i 50 -a 0 -x {0.0 2.1 -1 ------- null}
+ -t 0.19375 -s 1 -d 2 -p cbr -e 210 -c 0 -i 51 -a 0 -x {1.0 2.1 25 ------- null}
- -t 0.19375 -s 1 -d 2 -p cbr -e 210 -c 0 -i 51 -a 0 -x {1.0 2.1 25 ------- null}
h -t 0.19375 -s 1 -d 2 -p cbr -e 210 -c 0 -i 51 -a 0 -x {1.0 2.1 -1 ------- null}
+ -t 0.1975 -s 0 -d 2 -p cbr -e 210 -c 0 -i 52 -a 0 -x {0.0 2.1 26 ------- null}
- -t 0.1975 -s 0 -d 2 -p cbr -e 210 -c 0 -i 52 -a 0 -x {0.0 2.1 26 ------- null}
h -t 0.1975 -s 0 -d 2 -p cbr -e 210 -c 0 -i 52 -a 0 -x {0.0 2.1 -1 ------- null}
+ -t 0.1975 -s 1 -d 2 -p cbr -e 210 -c 0 -i 53 -a 0 -x {1.0 2.1 26 ------- null}
- -t 0.1975 -s 1 -d 2 -p cbr -e 210 -c 0 -i 53 -a 0 -x {1.0 2.1 26 ------- null}
h -t 0.1975 -s 1 -d 2 -p cbr -e 210 -c 0 -i 53 -a 0 -x {1.0 2.1 -1 ------- null}
+ -t 0.20125 -s 0 -d 2 -p cbr -e 210 -c 0 -i 54 -a 0 -x {0.0 2.1 27 ------- null}
- -t 0.20125 -s 0 -d 2 -p cbr -e 210 -c 0 -i 54 -a 0 -x {0.0 2.1 27 ------- null}
h -t 0.20125 -s 0 -d 2 -p cbr -e 210 -c 0 -i 54 -a 0 -x {0.0 2.1 -1 ------- null}
+ -t 0.20125 -s 1 -d 2 -p cbr -e 210 -c 0 -i 55 -a 0 -x {1.0 2.1 27 ------- null}
- -t 0.20125 -s 1 -d 2 -p cbr -e 210 -c 0 -i 55 -a 0 -x {1.0 2.1 27 ------- null}
h -t 0.20125 -s 1 -d 2 -p cbr -e 210 -c 0 -i 55 -a 0 -x {1.0 2.1 -1 ------- null}
+ -t 0.205 -s 0 -d 2 -p cbr -e 210 -c 0 -i 56 -a 0 -x {0.0 2.1 28 ------- null}
- -t 0.205 -s 0 -d 2 -p cbr -e 210 -c 0 -i 56 -a 0 -x {0.0 2.1 28 ------- null}
h -t 0.205 -s 0 -d 2 -p cbr -e 210 -c 0 -i 56 -a 0 -x {0.0 2.1 -1 ------- null}
+ -t 0.205 -s 1 -d 2 -p cbr -e 210 -c 0 -i 57 -a 0 -x {1.0 2.1 28 ------- null}
- -t 0.205 -s 1 -d 2 -p cbr -e 210 -c 0 -i 57 -a 0 -x {1.0 2.1 28 ------- null}
h -t 0.205 -s 1 -d 2 -p cbr -e 210 -c 0 -i 57 -a 0 -x {1.0 2.1 -1 ------- null}
+ -t 0.20875 -s 0 -d 2 -p cbr -e 210 -c 0 -i 58 -a 0 -x {0.0 2.1 29 ------- null}
- -t 0.20875 -s 0 -d 2 -p cbr -e 210 -c 0 -i 58 -a 0 -x {0.0 2.1 29 ------- null}
h -t 0.20875 -s 0 -d 2 -p cbr -e 210 -c 0 -i 58 -a 0 -x {0.0 2.1 -1 ------- null}
+ -t 0.20875 -s 1 -d 2 -p cbr -e 210 -c 0 -i 59 -a 0 -x {1.0 2.1 29 ------- null}
- -t 0.20875 -s 1 -d 2 -p cbr -e 210 -c 0 -i 59 -a 0 -x {1.0 2.1 29 ------- null}
h -t 0.20875 -s 1 -d 2 -p cbr -e 210 -c 0 -i 59 -a 0 -x {1.0 2.1 -1 ------- null}
+ -t 0.2125 -s 0 -d 2 -p cbr -e 210 -c 0 -i 60 -a 0 -x {0.0 2.1 30 ------- null}
- -t 0.2125 -s 0 -d 2 -p cbr -e 210 -c 0 -i 60 -a 0 -x {0.0 2.1 30 ------- null}
h -t 0.2125 -s 0 -d 2 -p cbr -e 210 -c 0 -i 60 -a 0 -x {0.0 2.1 -1 ------- null}
+ -t 0.2125 -s 1 -d 2 -p cbr -e 210 -c 0 -i 61 -a 0 -x {1.0 2.1 30 ------- null}
- -t 0.2125 -s 1 -d 2 -p cbr -e 210 -c 0 -i 61 -a 0 -x {1.0 2.1 30 ------- null}
h -t 0.2125 -s 1 -d 2 -p cbr -e 210 -c 0 -i 61 -a 0 -x {1.0 2.1 -1 ------- null}
+ -t 0.21625 -s 0 -d 2 -p cbr -e 210 -c 0 -i 62 -a 0 -x {0.0 2.1 31 ------- null}
- -t 0.21625 -s 0 -d 2 -p cbr -e 210 -c 0 -i 62 -a 0 -x {0.0 2.1 31 ------- null}
h -t 0.21625 -s 0 -d 2 -p cbr -e 210 -c 0 -i 62 -a 0 -x {0.0 2.1 -1 ------- null}
+ -t 0.21625 -s 1 -d 2 -p cbr -e 210 -c 0 -i 63 -a 0 -x {1.0 2.1 31 ------- null}
- -t 0.21625 -s 1 -d 2 -p cbr -e 210 -c 0 -i 63 -a 0 -x {1.0 2.1 31 ------- null}
h -t 0.21625 -s 1 -d 2 -p cbr -e 210 -c 0 -i 63 -a 0 -x {1.0 2.1 -1 ------- null}
+ -t 0.22 -s 0 -d 2 -p cbr -e 210 -c 0 -i 64 -a 0 -x {0.0 2.1 32 ------- null}
- -t 0.22 -s 0 -d 2 -p cbr -e 210 -c 0 -i 64 -a 0 -x {0.0 2.1 32 ------- null}
h -t 0.22 -s 0 -d 2 -p cbr -e 210 -c 0 -i 64 -a 0 -x {0.0 2.1 -1 ------- null}
+ -t 0.22 -s 1 -d 2 -p cbr -e 210 -c 0 -i 65 -a 0 -x {1.0 2.1 32 ------- null}
- -t 0.22 -s 1 -d 2 -p cbr -e 210 -c 0 -i 65 -a 0 -x {1.0 2.1 32 ------- null}
h -t 0.22 -s 1 -d 2 -p cbr -e 210 -c 0 -i 65 -a 0 -x {1.0 2.1 -1 ------- null}
+ -t 0.22375 -s 0 -d 2 -p cbr -e 210 -c 0 -i 66 -a 0 -x {0.0 2.1 33 ------- null}
- -t 0.22375 -s 0 -d 2 -p cbr -e 210 -c 0 -i 66 -a 0 -x {0.0 2.1 33 ------- null}
h -t 0.22375 -s 0 -d 2 -p cbr -e 210 -c 0 -i 66 -a 0 -x {0.0 2.1 -1 ------- null}
+ -t 0.22375 -s 1 -d 2 -p cbr -e 210 -c 0 -i 67 -a 0 -x {1.0 2.1 33 ------- null}
- -t 0.22375 -s 1 -d 2 -p cbr -e 210 -c 0 -i 67 -a 0 -x {1.0 2.1 33 ------- null}
h -t 0.22375 -s 1 -d 2 -p cbr -e 210 -c 0 -i 67 -a 0 -x {1.0 2.1 -1 ------- null}
+ -t 0.2275 -s 0 -d 2 -p cbr -e 210 -c 0 -i 68 -a 0 -x {0.0 2.1 34 ------- null}
- -t 0.2275 -s 0 -d 2 -p cbr -e 210 -c 0 -i 68 -a 0 -x {0.0 2.1 34 ------- null}
h -t 0.2275 -s 0 -d 2 -p cbr -e 210 -c 0 -i 68 -a 0 -x {0.0 2.1 -1 ------- null}
+ -t 0.2275 -s 1 -d 2 -p cbr -e 210 -c 0 -i 69 -a 0 -x {1.0 2.1 34 ------- null}
- -t 0.2275 -s 1 -d 2 -p cbr -e 210 -c 0 -i 69 -a 0 -x {1.0 2.1 34 ------- null}
h -t 0.2275 -s 1 -d 2 -p cbr -e 210 -c 0 -i 69 -a 0 -x {1.0 2.1 -1 ------- null}
+ -t 0.23125 -s 0 -d 2 -p cbr -e 210 -c 0 -i 70 -a 0 -x {0.0 2.1 35 ------- null}
- -t 0.23125 -s 0 -d 2 -p cbr -e 210 -c 0 -i 70 -a 0 -x {0.0 2.1 35 ------- null}
h -t 0.23125 -s 0 -d 2 -p cbr -e 210 -c 0 -i 70 -a 0 -x {0.0 2.1 -1 ------- null}
+ -t 0.23125 -s 1 -d 2 -p cbr -e 210 -c 0 -i 71 -a 0 -x {1.0 2.1 35 ------- null}
- -t 0.23125 -s 1 -d 2 -p cbr -e 210 -c 0 -i 71 -a 0 -x {1.0 2.1 35 ------- null}
h -t 0.23125 -s 1 -d 2 -p cbr -e 210 -c 0 -i 71 -a 0 -x {1.0 2.1 -1 ------- null}
+ -t 0.235 -s 0 -d 2 -p cbr -e 210 -c 0 -i 72 -a 0 -x {0.0 2.1 36 ------- null}
- -t 0.235 -s 0 -d 2 -p cbr -e 210 -c 0 -i 72 -a 0 -x {0.0 2.1 36 ------- null}
h -t 0.235 -s 0 -d 2 -p cbr -e 210 -c 0 -i 72 -a 0 -x {0.0 2.1 -1 ------- null}
+ -t 0.235 -s 1 -d 2 -p cbr -e 210 -c 0 -i 73 -a 0 -x {1.0 2.1 36 ------- null}
- -t 0.235 -s 1 -d 2 -p cbr -e 210 -c 0 -i 73 -a 0 -x {1.0 2.1 36 ------- null}
h -t 0.235 -s 1 -d 2 -p cbr -e 210 -c 0 -i 73 -a 0 -x {1.0 2.1 -1 ------- null}
+ -t 0.23875 -s 0 -d 2 -p cbr -e 210 -c 0 -i 74 -a 0 -x {0.0 2.1 37 ------- null}
- -t 0.23875 -s 0 -d 2 -p cbr -e 210 -c 0 -i 74 -a 0 -x {0.0 2.1 37 ------- null}
h -t 0.23875 -s 0 -d 2 -p cbr -e 210 -c 0 -i 74 -a 0 -x {0.0 2.1 -1 ------- null}
+ -t 0.23875 -s 1 -d 2 -p cbr -e 210 -c 0 -i 75 -a 0 -x {1.0 2.1 37 ------- null}
- -t 0.23875 -s 1 -d 2 -p cbr -e 210 -c 0 -i 75 -a 0 -x {1.0 2.1 37 ------- null}
h -t 0.23875 -s 1 -d 2 -p cbr -e 210 -c 0 -i 75 -a 0 -x {1.0 2.1 -1 ------- null}
+ -t 0.2425 -s 0 -d 2 -p cbr -e 210 -c 0 -i 76 -a 0 -x {0.0 2.1 38 ------- null}
- -t 0.2425 -s 0 -d 2 -p cbr -e 210 -c 0 -i 76 -a 0 -x {0.0 2.1 38 ------- null}
h -t 0.2425 -s 0 -d 2 -p cbr -e 210 -c 0 -i 76 -a 0 -x {0.0 2.1 -1 ------- null}
+ -t 0.2425 -s 1 -d 2 -p cbr -e 210 -c 0 -i 77 -a 0 -x {1.0 2.1 38 ------- null}
- -t 0.2425 -s 1 -d 2 -p cbr -e 210 -c 0 -i 77 -a 0 -x {1.0 2.1 38 ------- null}
h -t 0.2425 -s 1 -d 2 -p cbr -e 210 -c 0 -i 77 -a 0 -x {1.0 2.1 -1 ------- null}
+ -t 0.24625 -s 0 -d 2 -p cbr -e 210 -c 0 -i 78 -a 0 -x {0.0 2.1 39 ------- null}
- -t 0.24625 -s 0 -d 2 -p cbr -e 210 -c 0 -i 78 -a 0 -x {0.0 2.1 39 ------- null}
h -t 0.24625 -s 0 -d 2 -p cbr -e 210 -c 0 -i 78 -a 0 -x {0.0 2.1 -1 ------- null}
+ -t 0.24625 -s 1 -d 2 -p cbr -e 210 -c 0 -i 79 -a 0 -x {1.0 2.1 39 ------- null}
- -t 0.24625 -s 1 -d 2 -p cbr -e 210 -c 0 -i 79 -a 0 -x {1.0 2.1 39 ------- null}
h -t 0.24625 -s 1 -d 2 -p cbr -e 210 -c 0 -i 79 -a 0 -x {1.0 2.1 -1 ------- null}
+ -t 0.25 -s 0 -d 2 -p cbr -e 210 -c 0 -i 80 -a 0 -x {0.0 2.1 40 ------- null}
- -t 0.25 -s 0 -d 2 -p cbr -e 210 -c 0 -i 80 -a 0 -x {0.0 2.1 40 ------- null}
h -t 0.25 -s 0 -d 2 -p cbr -e 210 -c 0 -i 80 -a 0 -x {0.0 2.1 -1 ------- null}
+ -t 0.25 -s 1 -d 2 -p cbr -e 210 -c 0 -i 81 -a 0 -x {1.0 2.1 40 ------- null}
- -t 0.25 -s 1 -d 2 -p cbr -e 210 -c 0 -i 81 -a 0 -x {1.0 2.1 40 ------- null}
h -t 0.25 -s 1 -d 2 -p cbr -e 210 -c 0 -i 81 -a 0 -x {1.0 2.1 -1 ------- null}
+ -t 0.25375 -s 0 -d 2 -p cbr -e 210 -c 0 -i 82 -a 0 -x {0.0 2.1 41 ------- null}
- -t 0.25375 -s 0 -d 2 -p cbr -e 210 -c 0 -i 82 -a 0 -x {0.0 2.1 41 ------- null}
h -t 0.25375 -s 0 -d 2 -p cbr -e 210 -c 0 -i 82 -a 0 -x {0.0 2.1 -1 ------- null}
+ -t 0.25375 -s 1 -d 2 -p cbr -e 210 -c 0 -i 83 -a 0 -x {1.0 2.1 41 ------- null}
- -t 0.25375 -s 1 -d 2 -p cbr -e 210 -c 0 -i 83 -a 0 -x {1.0 2.1 41 ------- null}
h -t 0.25375 -s 1 -d 2 -p cbr -e 210 -c 0 -i 83 -a 0 -x {1.0 2.1 -1 ------- null}
+ -t 0.2575 -s 0 -d 2 -p cbr -e 210 -c 0 -i 84 -a 0 -x {0.0 2.1 42 ------- null}
- -t 0.2575 -s 0 -d 2 -p cbr -e 210 -c 0 -i 84 -a 0 -x {0.0 2.1 42 ------- null}
h -t 0.2575 -s 0 -d 2 -p cbr -e 210 -c 0 -i 84 -a 0 -x {0.0 2.1 -1 ------- null}
+ -t 0.2575 -s 1 -d 2 -p cbr -e 210 -c 0 -i 85 -a 0 -x {1.0 2.1 42 ------- null}
- -t 0.2575 -s 1 -d 2 -p cbr -e 210 -c 0 -i 85 -a 0 -x {1.0 2.1 42 ------- null}
h -t 0.2575 -s 1 -d 2 -p cbr -e 210 -c 0 -i 85 -a 0 -x {1.0 2.1 -1 ------- null}
+ -t 0.26125 -s 0 -d 2 -p cbr -e 210 -c 0 -i 86 -a 0 -x {0.0 2.1 43 ------- null}
- -t 0.26125 -s 0 -d 2 -p cbr -e 210 -c 0 -i 86 -a 0 -x {0.0 2.1 43 ------- null}
h -t 0.26125 -s 0 -d 2 -p cbr -e 210 -c 0 -i 86 -a 0 -x {0.0 2.1 -1 ------- null}
+ -t 0.26125 -s 1 -d 2 -p cbr -e 210 -c 0 -i 87 -a 0 -x {1.0 2.1 43 ------- null}
- -t 0.26125 -s 1 -d 2 -p cbr -e 210 -c 0 -i 87 -a 0 -x {1.0 2.1 43 ------- null}
h -t 0.26125 -s 1 -d 2 -p cbr -e 210 -c 0 -i 87 -a 0 -x {1.0 2.1 -1 ------- null}
+ -t 0.265 -s 0 -d 2 -p cbr -e 210 -c 0 -i 88 -a 0 -x {0.0 2.1 44 ------- null}
- -t 0.265 -s 0 -d 2 -p cbr -e 210 -c 0 -i 88 -a 0 -x {0.0 2.1 44 ------- null}
h -t 0.265 -s 0 -d 2 -p cbr -e 210 -c 0 -i 88 -a 0 -x {0.0 2.1 -1 ------- null}
+ -t 0.265 -s 1 -d 2 -p cbr -e 210 -c 0 -i 89 -a 0 -x {1.0 2.1 44 ------- null}
- -t 0.265 -s 1 -d 2 -p cbr -e 210 -c 0 -i 89 -a 0 -x {1.0 2.1 44 ------- null}
h -t 0.265 -s 1 -d 2 -p cbr -e 210 -c 0 -i 89 -a 0 -x {1.0 2.1 -1 ------- null}
+ -t 0.26875 -s 0 -d 2 -p cbr -e 210 -c 0 -i 90 -a 0 -x {0.0 2.1 45 ------- null}
- -t 0.26875 -s 0 -d 2 -p cbr -e 210 -c 0 -i 90 -a 0 -x {0.0 2.1 45 ------- null}
h -t 0.26875 -s 0 -d 2 -p cbr -e 210 -c 0 -i 90 -a 0 -x {0.0 2.1 -1 ------- null}
+ -t 0.26875 -s 1 -d 2 -p cbr -e 210 -c 0 -i 91 -a 0 -x {1.0 2.1 45 ------- null}
- -t 0.26875 -s 1 -d 2 -p cbr -e 210 -c 0 -i 91 -a 0 -x {1.0 2.1 45 ------- null}
h -t 0.26875 -s 1 -d 2 -p cbr -e 210 -c 0 -i 91 -a 0 -x {1.0 2.1 -1 ------- null}
+ -t 0.2725 -s 0 -d 2 -p cbr -e 210 -c 0 -i 92 -a 0 -x {0.0 2.1 46 ------- null}
- -t 0.2725 -s 0 -d 2 -p cbr -e 210 -c 0 -i 92 -a 0 -x {0.0 2.1 46 ------- null}
h -t 0.2725 -s 0 -d 2 -p cbr -e 210 -c 0 -i 92 -a 0 -x {0.0 2.1 -1 ------- null}
+ -t 0.2725 -s 1 -d 2 -p cbr -e 210 -c 0 -i 93 -a 0 -x {1.0 2.1 46 ------- null}
- -t 0.2725 -s 1 -d 2 -p cbr -e 210 -c 0 -i 93 -a 0 -x {1.0 2.1 46 ------- null}
h -t 0.2725 -s 1 -d 2 -p cbr -e 210 -c 0 -i 93 -a 0 -x {1.0 2.1 -1 ------- null}
+ -t 0.27625 -s 0 -d 2 -p cbr -e 210 -c 0 -i 94 -a 0 -x {0.0 2.1 47 ------- null}
- -t 0.27625 -s 0 -d 2 -p cbr -e 210 -c 0 -i 94 -a 0 -x {0.0 2.1 47 ------- null}
h -t 0.27625 -s 0 -d 2 -p cbr -e 210 -c 0 -i 94 -a 0 -x {0.0 2.1 -1 ------- null}
+ -t 0.27625 -s 1 -d 2 -p cbr -e 210 -c 0 -i 95 -a 0 -x {1.0 2.1 47 ------- null}
- -t 0.27625 -s 1 -d 2 -p cbr -e 210 -c 0 -i 95 -a 0 -x {1.0 2.1 47 ------- null}
h -t 0.27625 -s 1 -d 2 -p cbr -e 210 -c 0 -i 95 -a 0 -x {1.0 2.1 -1 ------- null}
+ -t 0.28 -s 0 -d 2 -p cbr -e 210 -c 0 -i 96 -a 0 -x {0.0 2.1 48 ------- null}
- -t 0.28 -s 0 -d 2 -p cbr -e 210 -c 0 -i 96 -a 0 -x {0.0 2.1 48 ------- null}
h -t 0.28 -s 0 -d 2 -p cbr -e 210 -c 0 -i 96 -a 0 -x {0.0 2.1 -1 ------- null}
+ -t 0.28 -s 1 -d 2 -p cbr -e 210 -c 0 -i 97 -a 0 -x {1.0 2.1 48 ------- null}
- -t 0.28 -s 1 -d 2 -p cbr -e 210 -c 0 -i 97 -a 0 -x {1.0 2.1 48 ------- null}
h -t 0.28 -s 1 -d 2 -p cbr -e 210 -c 0 -i 97 -a 0 -x {1.0 2.1 -1 ------- null}
+ -t 0.28375 -s 0 -d 2 -p cbr -e 210 -c 0 -i 98 -a 0 -x {0.0 2.1 49 ------- null}
- -t 0.28375 -s 0 -d 2 -p cbr -e 210 -c 0 -i 98 -a 0 -x {0.0 2.1 49 ------- null}
h -t 0.28375 -s 0 -d 2 -p cbr -e 210 -c 0 -i 98 -a 0 -x {0.0 2.1 -1 ------- null}
+ -t 0.28375 -s 1 -d 2 -p cbr -e 210 -c 0 -i 99 -a 0 -x {1.0 2.1 49 ------- null}
- -t 0.28375 -s 1 -d 2 -p cbr -e 210 -c 0 -i 99 -a 0 -x {1.0 2.1 49 ------- null}
h -t 0.28375 -s 1 -d 2 -p cbr -e 210 -c 0 -i 99 -a 0 -x {1.0 2.1 -1 ------- null}
+ -t 0.2875 -s 0 -d 2 -p cbr -e 210 -c 0 -i 100 -a 0 -x {0.0 2.1 50 ------- null}
- -t 0.2875 -s 0 -d 2 -p cbr -e 210 -c 0 -i 100 -a 0 -x {0.0 2.1 50 ------- null}
h -t 0.2875 -s 0 -d 2 -p cbr -e 210 -c 0 -i 100 -a 0 -x {0.0 2.1 -1 ------- null}
+ -t 0.2875 -s 1 -d 2 -p cbr -e 210 -c 0 -i 101 -a 0 -x {1.0 2.1 50 ------- null}
- -t 0.2875 -s 1 -d 2 -p cbr -e 210 -c 0 -i 101 -a 0 -x {1.0 2.1 50 ------- null}
h -t 0.2875 -s 1 -d 2 -p cbr -e 210 -c 0 -i 101 -a 0 -x {1.0 2.1 -1 ------- null}
+ -t 0.29125 -s 0 -d 2 -p cbr -e 210 -c 0 -i 102 -a 0 -x {0.0 2.1 51 ------- null}
- -t 0.29125 -s 0 -d 2 -p cbr -e 210 -c 0 -i 102 -a 0 -x {0.0 2.1 51 ------- null}
h -t 0.29125 -s 0 -d 2 -p cbr -e 210 -c 0 -i 102 -a 0 -x {0.0 2.1 -1 ------- null}
+ -t 0.29125 -s 1 -d 2 -p cbr -e 210 -c 0 -i 103 -a 0 -x {1.0 2.1 51 ------- null}
- -t 0.29125 -s 1 -d 2 -p cbr -e 210 -c 0 -i 103 -a 0 -x {1.0 2.1 51 ------- null}
h -t 0.29125 -s 1 -d 2 -p cbr -e 210 -c 0 -i 103 -a 0 -x {1.0 2.1 -1 ------- null}
+ -t 0.295 -s 0 -d 2 -p cbr -e 210 -c 0 -i 104 -a 0 -x {0.0 2.1 52 ------- null}
- -t 0.295 -s 0 -d 2 -p cbr -e 210 -c 0 -i 104 -a 0 -x {0.0 2.1 52 ------- null}
h -t 0.295 -s 0 -d 2 -p cbr -e 210 -c 0 -i 104 -a 0 -x {0.0 2.1 -1 ------- null}
+ -t 0.295 -s 1 -d 2 -p cbr -e 210 -c 0 -i 105 -a 0 -x {1.0 2.1 52 ------- null}
- -t 0.295 -s 1 -d 2 -p cbr -e 210 -c 0 -i 105 -a 0 -x {1.0 2.1 52 ------- null}
h -t 0.295 -s 1 -d 2 -p cbr -e 210 -c 0 -i 105 -a 0 -x {1.0 2.1 -1 ------- null}
+ -t 0.29875 -s 0 -d 2 -p cbr -e 210 -c 0 -i 106 -a 0 -x {0.0 2.1 53 ------- null}
- -t 0.29875 -s 0 -d 2 -p cbr -e 210 -c 0 -i 106 -a 0 -x {0.0 2.1 53 ------- null}
h -t 0.29875 -s 0 -d 2 -p cbr -e 210 -c 0 -i 106 -a 0 -x {0.0 2.1 -1 ------- null}
+ -t 0.29875 -s 1 -d 2 -p cbr -e 210 -c 0 -i 107 -a 0 -x {1.0 2.1 53 ------- null}
- -t 0.29875 -s 1 -d 2 -p cbr -e 210 -c 0 -i 107 -a 0 -x {1.0 2.1 53 ------- null}
h -t 0.29875 -s 1 -d 2 -p cbr -e 210 -c 0 -i 107 -a 0 -x {1.0 2.1 -1 ------- null}
r -t 0.300336 -s 1 -d 2 -p cbr -e 210 -c 0 -i 1 -a 0 -x {1.0 2.1 0 ------- null}
+ -t 0.3025 -s 0 -d 2 -p cbr -e 210 -c 0 -i 108 -a 0 -x {0.0 2.1 54 ------- null}
- -t 0.3025 -s 0 -d 2 -p cbr -e 210 -c 0 -i 108 -a 0 -x {0.0 2.1 54 ------- null}
h -t 0.3025 -s 0 -d 2 -p cbr -e 210 -c 0 -i 108 -a 0 -x {0.0 2.1 -1 ------- null}
+ -t 0.3025 -s 1 -d 2 -p cbr -e 210 -c 0 -i 109 -a 0 -x {1.0 2.1 54 ------- null}
- -t 0.3025 -s 1 -d 2 -p cbr -e 210 -c 0 -i 109 -a 0 -x {1.0 2.1 54 ------- null}
h -t 0.3025 -s 1 -d 2 -p cbr -e 210 -c 0 -i 109 -a 0 -x {1.0 2.1 -1 ------- null}
r -t 0.304086 -s 1 -d 2 -p cbr -e 210 -c 0 -i 3 -a 0 -x {1.0 2.1 1 ------- null}
+ -t 0.30625 -s 0 -d 2 -p cbr -e 210 -c 0 -i 110 -a 0 -x {0.0 2.1 55 ------- null}
- -t 0.30625 -s 0 -d 2 -p cbr -e 210 -c 0 -i 110 -a 0 -x {0.0 2.1 55 ------- null}
h -t 0.30625 -s 0 -d 2 -p cbr -e 210 -c 0 -i 110 -a 0 -x {0.0 2.1 -1 ------- null}
+ -t 0.30625 -s 1 -d 2 -p cbr -e 210 -c 0 -i 111 -a 0 -x {1.0 2.1 55 ------- null}
- -t 0.30625 -s 1 -d 2 -p cbr -e 210 -c 0 -i 111 -a 0 -x {1.0 2.1 55 ------- null}
h -t 0.30625 -s 1 -d 2 -p cbr -e 210 -c 0 -i 111 -a 0 -x {1.0 2.1 -1 ------- null}
r -t 0.307836 -s 1 -d 2 -p cbr -e 210 -c 0 -i 5 -a 0 -x {1.0 2.1 2 ------- null}
+ -t 0.31 -s 0 -d 2 -p cbr -e 210 -c 0 -i 112 -a 0 -x {0.0 2.1 56 ------- null}
- -t 0.31 -s 0 -d 2 -p cbr -e 210 -c 0 -i 112 -a 0 -x {0.0 2.1 56 ------- null}
h -t 0.31 -s 0 -d 2 -p cbr -e 210 -c 0 -i 112 -a 0 -x {0.0 2.1 -1 ------- null}
+ -t 0.31 -s 1 -d 2 -p cbr -e 210 -c 0 -i 113 -a 0 -x {1.0 2.1 56 ------- null}
- -t 0.31 -s 1 -d 2 -p cbr -e 210 -c 0 -i 113 -a 0 -x {1.0 2.1 56 ------- null}
h -t 0.31 -s 1 -d 2 -p cbr -e 210 -c 0 -i 113 -a 0 -x {1.0 2.1 -1 ------- null}
r -t 0.311586 -s 1 -d 2 -p cbr -e 210 -c 0 -i 7 -a 0 -x {1.0 2.1 3 ------- null}
+ -t 0.31375 -s 0 -d 2 -p cbr -e 210 -c 0 -i 114 -a 0 -x {0.0 2.1 57 ------- null}
- -t 0.31375 -s 0 -d 2 -p cbr -e 210 -c 0 -i 114 -a 0 -x {0.0 2.1 57 ------- null}
h -t 0.31375 -s 0 -d 2 -p cbr -e 210 -c 0 -i 114 -a 0 -x {0.0 2.1 -1 ------- null}
+ -t 0.31375 -s 1 -d 2 -p cbr -e 210 -c 0 -i 115 -a 0 -x {1.0 2.1 57 ------- null}
- -t 0.31375 -s 1 -d 2 -p cbr -e 210 -c 0 -i 115 -a 0 -x {1.0 2.1 57 ------- null}
h -t 0.31375 -s 1 -d 2 -p cbr -e 210 -c 0 -i 115 -a 0 -x {1.0 2.1 -1 ------- null}
r -t 0.315336 -s 1 -d 2 -p cbr -e 210 -c 0 -i 9 -a 0 -x {1.0 2.1 4 ------- null}
+ -t 0.3175 -s 0 -d 2 -p cbr -e 210 -c 0 -i 116 -a 0 -x {0.0 2.1 58 ------- null}
- -t 0.3175 -s 0 -d 2 -p cbr -e 210 -c 0 -i 116 -a 0 -x {0.0 2.1 58 ------- null}
h -t 0.3175 -s 0 -d 2 -p cbr -e 210 -c 0 -i 116 -a 0 -x {0.0 2.1 -1 ------- null}
+ -t 0.3175 -s 1 -d 2 -p cbr -e 210 -c 0 -i 117 -a 0 -x {1.0 2.1 58 ------- null}
- -t 0.3175 -s 1 -d 2 -p cbr -e 210 -c 0 -i 117 -a 0 -x {1.0 2.1 58 ------- null}
h -t 0.3175 -s 1 -d 2 -p cbr -e 210 -c 0 -i 117 -a 0 -x {1.0 2.1 -1 ------- null}
r -t 0.319086 -s 1 -d 2 -p cbr -e 210 -c 0 -i 11 -a 0 -x {1.0 2.1 5 ------- null}
+ -t 0.32125 -s 0 -d 2 -p cbr -e 210 -c 0 -i 118 -a 0 -x {0.0 2.1 59 ------- null}
- -t 0.32125 -s 0 -d 2 -p cbr -e 210 -c 0 -i 118 -a 0 -x {0.0 2.1 59 ------- null}
h -t 0.32125 -s 0 -d 2 -p cbr -e 210 -c 0 -i 118 -a 0 -x {0.0 2.1 -1 ------- null}
+ -t 0.32125 -s 1 -d 2 -p cbr -e 210 -c 0 -i 119 -a 0 -x {1.0 2.1 59 ------- null}
- -t 0.32125 -s 1 -d 2 -p cbr -e 210 -c 0 -i 119 -a 0 -x {1.0 2.1 59 ------- null}