+ 0.1 0 2 cbr 210 ------- 0 0.0 2.1 0 0
- 0.1 0 2 cbr 210 ------- 0 0.0 2.1 0 0
+ 0.1 1 2 cbr 210 ------- 0 1.0 2.1 0 1
- 0.1 1 2 cbr 210 ------- 0 1.0 2.1 0 1
+ 0.10375 0 2 cbr 210 ------- 0 0.0 2.1 1 2
- 0.10375 0 2 cbr 210 ------- 0 0.0 2.1 1 2
+ 0.10375 1 2 cbr 210 ------- 0 1.0 2.1 1 3
- 0.10375 1 2 cbr 210 ------- 0 1.0 2.1 1 3
+ 0.1075 0 2 cbr 210 ------- 0 0.0 2.1 2 4
- 0.1075 0 2 cbr 210 ------- 0 0.0 2.1 2 4
+ 0.1075 1 2 cbr 210 ------- 0 1.0 2.1 2 5
- 0.1075 1 2 cbr 210 ------- 0 1.0 2.1 2 5
+ 0.11125 0 2 cbr 210 ------- 0 0.0 2.1 3 6
- 0.11125 0 2 cbr 210 ------- 0 0.0 2.1 3 6
+ 0.11125 1 2 cbr 210 ------- 0 1.0 2.1 3 7
- 0.11125 1 2 cbr 210 ------- 0 1.0 2.1 3 7
+ 0.115 0 2 cbr 210 ------- 0 0.0 2.1 4 8
- 0.115 0 2 cbr 210 ------- 0 0.0 2.1 4 8
+ 0.115 1 2 cbr 210 ------- 0 1.0 2.1 4 9
- 0.115 1 2 cbr 210 ------- 0 1.0 2.1 4 9
+ 0.11875 0 2 cbr 210 ------- 0 0.0 2.1 5 10
- 0.11875 0 2 cbr 210 ------- 0 0.0 2.1 5 10
+ 0.11875 1 2 cbr 210 ------- 0 1.0 2.1 5 11
- 0.11875 1 2 cbr 210 ------- 0 1.0 2.1 5 11
+ 0.1225 0 2 cbr 210 ------- 0 0.0 2.1 6 12
- 0.1225 0 2 cbr 210 ------- 0 0.0 2.1 6 12
+ 0.1225 1 2 cbr 210 ------- 0 1.0 2.1 6 13
- 0.1225 1 2 cbr 210 ------- 0 1.0 2.1 6 13
+ 0.12625 0 2 cbr 210 ------- 0 0.0 2.1 7 14
- 0.12625 0 2 cbr 210 ------- 0 0.0 2.1 7 14
+ 0.12625 1 2 cbr 210 ------- 0 1.0 2.1 7 15
- 0.12625 1 2 cbr 210 ------- 0 1.0 2.1 7 15
+ 0.13 0 2 cbr 210 ------- 0 0.0 2.1 8 16
- 0.13 0 2 cbr 210 ------- 0 0.0 2.1 8 16
+ 0.13 1 2 cbr 210 ------- 0 1.0 2.1 8 17
- 0.13 1 2 cbr 210 ------- 0 1.0 2.1 8 17
+ 0.13375 0 2 cbr 210 ------- 0 0.0 2.1 9 18
- 0.13375 0 2 cbr 210 ------- 0 0.0 2.1 9 18
+ 0.13375 1 2 cbr 210 ------- 0 1.0 2.1 9 19
- 0.13375 1 2 cbr 210 ------- 0 1.0 2.1 9 19
+ 0.1375 0 2 cbr 210 ------- 0 0.0 2.1 10 20
- 0.1375 0 2 cbr 210 ------- 0 0.0 2.1 10 20
+ 0.1375 1 2 cbr 210 ------- 0 1.0 2.1 10 21
- 0.1375 1 2 cbr 210 ------- 0 1.0 2.1 10 21
+ 0.14125 0 2 cbr 210 ------- 0 0.0 2.1 11 22
- 0.14125 0 2 cbr 210 ------- 0 0.0 2.1 11 22
+ 0.14125 1 2 cbr 210 ------- 0 1.0 2.1 11 23
- 0.14125 1 2 cbr 210 ------- 0 1.0 2.1 11 23
+ 0.145 0 2 cbr 210 ------- 0 0.0 2.1 12 24
- 0.145 0 2 cbr 210 ------- 0 0.0 2.1 12 24
+ 0.145 1 2 cbr 210 ------- 0 1.0 2.1 12 25
- 0.145 1 2 cbr 210 ------- 0 1.0 2.1 12 25
+ 0.14875 0 2 cbr 210 ------- 0 0.0 2.1 13 26
- 0.14875 0 2 cbr 210 ------- 0 0.0 2.1 13 26
+ 0.14875 1 2 cbr 210 ------- 0 1.0 2.1 13 27
- 0.14875 1 2 cbr 210 ------- 0 1.0 2.1 13 27
+ 0.1525 0 2 cbr 210 ------- 0 0.0 2.1 14 28
- 0.1525 0 2 cbr 210 ------- 0 0.0 2.1 14 28
+ 0.1525 1 2 cbr 210 ------- 0 1.0 2.1 14 29
- 0.1525 1 2 cbr 210 ------- 0 1.0 2.1 14 29
+ 0.15625 0 2 cbr 210 ------- 0 0.0 2.1 15 30
- 0.15625 0 2 cbr 210 ------- 0 0.0 2.1 15 30
+ 0.15625 1 2 cbr 210 ------- 0 1.0 2.1 15 31
- 0.15625 1 2 cbr 210 ------- 0 1.0 2.1 15 31
+ 0.16 0 2 cbr 210 ------- 0 0.0 2.1 16 32
- 0.16 0 2 cbr 210 ------- 0 0.0 2.1 16 32
+ 0.16 1 2 cbr 210 ------- 0 1.0 2.1 16 33
- 0.16 1 2 cbr 210 ------- 0 1.0 2.1 16 33
+ 0.16375 0 2 cbr 210 ------- 0 0.0 2.1 17 34
- 0.16375 0 2 cbr 210 ------- 0 0.0 2.1 17 34
+ 0.16375 1 2 cbr 210 ------- 0 1.0 2.1 17 35
- 0.16375 1 2 cbr 210 ------- 0 1.0 2.1 17 35
+ 0.1675 0 2 cbr 210 ------- 0 0.0 2.1 18 36
- 0.1675 0 2 cbr 210 ------- 0 0.0 2.1 18 36
+ 0.1675 1 2 cbr 210 ------- 0 1.0 2.1 18 37
- 0.1675 1 2 cbr 210 ------- 0 1.0 2.1 18 37
+ 0.17125 0 2 cbr 210 ------- 0 0.0 2.1 19 38
- 0.17125 0 2 cbr 210 ------- 0 0.0 2.1 19 38
+ 0.17125 1 2 cbr 210 ------- 0 1.0 2.1 19 39
- 0.17125 1 2 cbr 210 ------- 0 1.0 2.1 19 39
+ 0.175 0 2 cbr 210 ------- 0 0.0 2.1 20 40
- 0.175 0 2 cbr 210 ------- 0 0.0 2.1 20 40
+ 0.175 1 2 cbr 210 ------- 0 1.0 2.1 20 41
- 0.175 1 2 cbr 210 ------- 0 1.0 2.1 20 41
+ 0.17875 0 2 cbr 210 ------- 0 0.0 2.1 21 42
- 0.17875 0 2 cbr 210 ------- 0 0.0 2.1 21 42
+ 0.17875 1 2 cbr 210 ------- 0 1.0 2.1 21 43
- 0.17875 1 2 cbr 210 ------- 0 1.0 2.1 21 43
+ 0.1825 0 2 cbr 210 ------- 0 0.0 2.1 22 44
- 0.1825 0 2 cbr 210 ------- 0 0.0 2.1 22 44
+ 0.1825 1 2 cbr 210 ------- 0 1.0 2.1 22 45
- 0.1825 1 2 cbr 210 ------- 0 1.0 2.1 22 45
+ 0.18625 0 2 cbr 210 ------- 0 0.0 2.1 23 46
- 0.18625 0 2 cbr 210 ------- 0 0.0 2.1 23 46
+ 0.18625 1 2 cbr 210 ------- 0 1.0 2.1 23 47
- 0.18625 1 2 cbr 210 ------- 0 1.0 2.1 23 47
+ 0.19 0 2 cbr 210 ------- 0 0.0 2.1 24 48
- 0.19 0 2 cbr 210 ------- 0 0.0 2.1 24 48
+ 0.19 1 2 cbr 210 ------- 0 1.0 2.1 24 49
- 0.19 1 2 cbr 210 ------- 0 1.0 2.1 24 49
+ 0.19375 0 2 cbr 210 ------- 0 0.0 2.1 25 50
- 0.19375 0 2 cbr 210 ------- 0 0.0 2.1 25 50
+ 0.19375 1 2 cbr 210 ------- 0 1.0 2.1 25 51
- 0.19375 1 2 cbr 210 ------- 0 1.0 2.1 25 51
+ 0.1975 0 2 cbr 210 ------- 0 0.0 2.1 26 52
- 0.1975 0 2 cbr 210 ------- 0 0.0 2.1 26 52
+ 0.1975 1 2 cbr 210 ------- 0 1.0 2.1 26 53
- 0.1975 1 2 cbr 210 ------- 0 1.0 2.1 26 53
+ 0.20125 0 2 cbr 210 ------- 0 0.0 2.1 27 54
- 0.20125 0 2 cbr 210 ------- 0 0.0 2.1 27 54
+ 0.20125 1 2 cbr 210 ------- 0 1.0 2.1 27 55
- 0.20125 1 2 cbr 210 ------- 0 1.0 2.1 27 55
+ 0.205 0 2 cbr 210 ------- 0 0.0 2.1 28 56
- 0.205 0 2 cbr 210 ------- 0 0.0 2.1 28 56
+ 0.205 1 2 cbr 210 ------- 0 1.0 2.1 28 57
- 0.205 1 2 cbr 210 ------- 0 1.0 2.1 28 57
+ 0.20875 0 2 cbr 210 ------- 0 0.0 2.1 29 58
- 0.20875 0 2 cbr 210 ------- 0 0.0 2.1 29 58
+ 0.20875 1 2 cbr 210 ------- 0 1.0 2.1 29 59
- 0.20875 1 2 cbr 210 ------- 0 1.0 2.1 29 59
+ 0.2125 0 2 cbr 210 ------- 0 0.0 2.1 30 60
- 0.2125 0 2 cbr 210 ------- 0 0.0 2.1 30 60
+ 0.2125 1 2 cbr 210 ------- 0 1.0 2.1 30 61
- 0.2125 1 2 cbr 210 ------- 0 1.0 2.1 30 61
+ 0.21625 0 2 cbr 210 ------- 0 0.0 2.1 31 62
- 0.21625 0 2 cbr 210 ------- 0 0.0 2.1 31 62
+ 0.21625 1 2 cbr 210 ------- 0 1.0 2.1 31 63
- 0.21625 1 2 cbr 210 ------- 0 1.0 2.1 31 63
+ 0.22 0 2 cbr 210 ------- 0 0.0 2.1 32 64
- 0.22 0 2 cbr 210 ------- 0 0.0 2.1 32 64
+ 0.22 1 2 cbr 210 ------- 0 1.0 2.1 32 65
- 0.22 1 2 cbr 210 ------- 0 1.0 2.1 32 65
+ 0.22375 0 2 cbr 210 ------- 0 0.0 2.1 33 66
- 0.22375 0 2 cbr 210 ------- 0 0.0 2.1 33 66
+ 0.22375 1 2 cbr 210 ------- 0 1.0 2.1 33 67
- 0.22375 1 2 cbr 210 ------- 0 1.0 2.1 33 67
+ 0.2275 0 2 cbr 210 ------- 0 0.0 2.1 34 68
- 0.2275 0 2 cbr 210 ------- 0 0.0 2.1 34 68
+ 0.2275 1 2 cbr 210 ------- 0 1.0 2.1 34 69
- 0.2275 1 2 cbr 210 ------- 0 1.0 2.1 34 69
+ 0.23125 0 2 cbr 210 ------- 0 0.0 2.1 35 70
- 0.23125 0 2 cbr 210 ------- 0 0.0 2.1 35 70
+ 0.23125 1 2 cbr 210 ------- 0 1.0 2.1 35 71
- 0.23125 1 2 cbr 210 ------- 0 1.0 2.1 35 71
+ 0.235 0 2 cbr 210 ------- 0 0.0 2.1 36 72
- 0.235 0 2 cbr 210 ------- 0 0.0 2.1 36 72
+ 0.235 1 2 cbr 210 ------- 0 1.0 2.1 36 73
- 0.235 1 2 cbr 210 ------- 0 1.0 2.1 36 73
+ 0.23875 0 2 cbr 210 ------- 0 0.0 2.1 37 74
- 0.23875 0 2 cbr 210 ------- 0 0.0 2.1 37 74
+ 0.23875 1 2 cbr 210 ------- 0 1.0 2.1 37 75
- 0.23875 1 2 cbr 210 ------- 0 1.0 2.1 37 75
+ 0.2425 0 2 cbr 210 ------- 0 0.0 2.1 38 76
- 0.2425 0 2 cbr 210 ------- 0 0.0 2.1 38 76
+ 0.2425 1 2 cbr 210 ------- 0 1.0 2.1 38 77
- 0.2425 1 2 cbr 210 ------- 0 1.0 2.1 38 77
+ 0.24625 0 2 cbr 210 ------- 0 0.0 2.1 39 78
- 0.24625 0 2 cbr 210 ------- 0 0.0 2.1 39 78
+ 0.24625 1 2 cbr 210 ------- 0 1.0 2.1 39 79
- 0.24625 1 2 cbr 210 ------- 0 1.0 2.1 39 79
+ 0.25 0 2 cbr 210 ------- 0 0.0 2.1 40 80
- 0.25 0 2 cbr 210 ------- 0 0.0 2.1 40 80
+ 0.25 1 2 cbr 210 ------- 0 1.0 2.1 40 81
- 0.25 1 2 cbr 210 ------- 0 1.0 2.1 40 81
+ 0.25375 0 2 cbr 210 ------- 0 0.0 2.1 41 82
- 0.25375 0 2 cbr 210 ------- 0 0.0 2.1 41 82
+ 0.25375 1 2 cbr 210 ------- 0 1.0 2.1 41 83
- 0.25375 1 2 cbr 210 ------- 0 1.0 2.1 41 83
+ 0.2575 0 2 cbr 210 ------- 0 0.0 2.1 42 84
- 0.2575 0 2 cbr 210 ------- 0 0.0 2.1 42 84
+ 0.2575 1 2 cbr 210 ------- 0 1.0 2.1 42 85
- 0.2575 1 2 cbr 210 ------- 0 1.0 2.1 42 85
+ 0.26125 0 2 cbr 210 ------- 0 0.0 2.1 43 86
- 0.26125 0 2 cbr 210 ------- 0 0.0 2.1 43 86
+ 0.26125 1 2 cbr 210 ------- 0 1.0 2.1 43 87
- 0.26125 1 2 cbr 210 ------- 0 1.0 2.1 43 87
+ 0.265 0 2 cbr 210 ------- 0 0.0 2.1 44 88
- 0.265 0 2 cbr 210 ------- 0 0.0 2.1 44 88
+ 0.265 1 2 cbr 210 ------- 0 1.0 2.1 44 89
- 0.265 1 2 cbr 210 ------- 0 1.0 2.1 44 89
+ 0.26875 0 2 cbr 210 ------- 0 0.0 2.1 45 90
- 0.26875 0 2 cbr 210 ------- 0 0.0 2.1 45 90
+ 0.26875 1 2 cbr 210 ------- 0 1.0 2.1 45 91
- 0.26875 1 2 cbr 210 ------- 0 1.0 2.1 45 91
+ 0.2725 0 2 cbr 210 ------- 0 0.0 2.1 46 92
- 0.2725 0 2 cbr 210 ------- 0 0.0 2.1 46 92
+ 0.2725 1 2 cbr 210 ------- 0 1.0 2.1 46 93
- 0.2725 1 2 cbr 210 ------- 0 1.0 2.1 46 93
+ 0.27625 0 2 cbr 210 ------- 0 0.0 2.1 47 94
- 0.27625 0 2 cbr 210 ------- 0 0.0 2.1 47 94
+ 0.27625 1 2 cbr 210 ------- 0 1.0 2.1 47 95
- 0.27625 1 2 cbr 210 ------- 0 1.0 2.1 47 95
+ 0.28 0 2 cbr 210 ------- 0 0.0 2.1 48 96
- 0.28 0 2 cbr 210 ------- 0 0.0 2.1 48 96
+ 0.28 1 2 cbr 210 ------- 0 1.0 2.1 48 97
- 0.28 1 2 cbr 210 ------- 0 1.0 2.1 48 97
+ 0.28375 0 2 cbr 210 ------- 0 0.0 2.1 49 98
- 0.28375 0 2 cbr 210 ------- 0 0.0 2.1 49 98
+ 0.28375 1 2 cbr 210 ------- 0 1.0 2.1 49 99
- 0.28375 1 2 cbr 210 ------- 0 1.0 2.1 49 99
+ 0.2875 0 2 cbr 210 ------- 0 0.0 2.1 50 100
- 0.2875 0 2 cbr 210 ------- 0 0.0 2.1 50 100
+ 0.2875 1 2 cbr 210 ------- 0 1.0 2.1 50 101
- 0.2875 1 2 cbr 210 ------- 0 1.0 2.1 50 101
+ 0.29125 0 2 cbr 210 ------- 0 0.0 2.1 51 102
- 0.29125 0 2 cbr 210 ------- 0 0.0 2.1 51 102
+ 0.29125 1 2 cbr 210 ------- 0 1.0 2.1 51 103
- 0.29125 1 2 cbr 210 ------- 0 1.0 2.1 51 103
+ 0.295 0 2 cbr 210 ------- 0 0.0 2.1 52 104
- 0.295 0 2 cbr 210 ------- 0 0.0 2.1 52 104
+ 0.295 1 2 cbr 210 ------- 0 1.0 2.1 52 105
- 0.295 1 2 cbr 210 ------- 0 1.0 2.1 52 105
+ 0.29875 0 2 cbr 210 ------- 0 0.0 2.1 53 106
- 0.29875 0 2 cbr 210 ------- 0 0.0 2.1 53 106
+ 0.29875 1 2 cbr 210 ------- 0 1.0 2.1 53 107
- 0.29875 1 2 cbr 210 ------- 0 1.0 2.1 53 107
r 0.300336 1 2 cbr 210 ------- 0 1.0 2.1 0 1
+ 0.3025 0 2 cbr 210 ------- 0 0.0 2.1 54 108
- 0.3025 0 2 cbr 210 ------- 0 0.0 2.1 54 108
+ 0.3025 1 2 cbr 210 ------- 0 1.0 2.1 54 109
- 0.3025 1 2 cbr 210 ------- 0 1.0 2.1 54 109
r 0.304086 1 2 cbr 210 ------- 0 1.0 2.1 1 3
+ 0.30625 0 2 cbr 210 ------- 0 0.0 2.1 55 110
- 0.30625 0 2 cbr 210 ------- 0 0.0 2.1 55 110
+ 0.30625 1 2 cbr 210 ------- 0 1.0 2.1 55 111
- 0.30625 1 2 cbr 210 ------- 0 1.0 2.1 55 111
r 0.307836 1 2 cbr 210 ------- 0 1.0 2.1 2 5
+ 0.31 0 2 cbr 210 ------- 0 0.0 2.1 56 112
- 0.31 0 2 cbr 210 ------- 0 0.0 2.1 56 112
+ 0.31 1 2 cbr 210 ------- 0 1.0 2.1 56 113
- 0.31 1 2 cbr 210 ------- 0 1.0 2.1 56 113
r 0.311586 1 2 cbr 210 ------- 0 1.0 2.1 3 7
+ 0.31375 0 2 cbr 210 ------- 0 0.0 2.1 57 114
- 0.31375 0 2 cbr 210 ------- 0 0.0 2.1 57 114
+ 0.31375 1 2 cbr 210 ------- 0 1.0 2.1 57 115
- 0.31375 1 2 cbr 210 ------- 0 1.0 2.1 57 115
r 0.315336 1 2 cbr 210 ------- 0 1.0 2.1 4 9
+ 0.3175 0 2 cbr 210 ------- 0 0.0 2.1 58 116
- 0.3175 0 2 cbr 210 ------- 0 0.0 2.1 58 116
+ 0.3175 1 2 cbr 210 ------- 0 1.0 2.1 58 117
- 0.3175 1 2 cbr 210 ------- 0 1.0 2.1 58 117
r 0.319086 1 2 cbr 210 ------- 0 1.0 2.1 5 11
+ 0.32125 0 2 cbr 210 ------- 0 0.0 2.1 59 118
- 0.32125 0 2 cbr 210 ------- 0 0.0 2.1 59 118
+ 0.32125 1 2 cbr 210 ------- 0 1.0 2.1 59 119
- 0.32125 1 2 cbr 210 ------- 0 1.0 2.1 59 119
r 0.322836 1 2 cbr 210 ------- 0 1.0 2.1 6 13
+ 0.325 0 2 cbr 210 ------- 0 0.0 2.1 60 120
- 0.325 0 2 cbr 210 ------- 0 0.0 2.1 60 120
+ 0.325 1 2 cbr 210 ------- 0 1.0 2.1 60 121
- 0.325 1 2 cbr 210 ------- 0 1.0 2.1 60 121
r 0.326586 1 2 cbr 210 ------- 0 1.0 2.1 7 15
+ 0.32875 0 2 cbr 210 ------- 0 0.0 2.1 61 122
- 0.32875 0 2 cbr 210 ------- 0 0.0 2.1 61 122
+ 0.32875 1 2 cbr 210 ------- 0 1.0 2.1 61 123
- 0.32875 1 2 cbr 210 ------- 0 1.0 2.1 61 123
r 0.330336 1 2 cbr 210 ------- 0 1.0 2.1 8 17
+ 0.3325 0 2 cbr 210 ------- 0 0.0 2.1 62 124
- 0.3325 0 2 cbr 210 ------- 0 0.0 2.1 62 124
+ 0.3325 1 2 cbr 210 ------- 0 1.0 2.1 62 125
- 0.3325 1 2 cbr 210 ------- 0 1.0 2.1 62 125
r 0.334086 1 2 cbr 210 ------- 0 1.0 2.1 9 19
+ 0.33625 0 2 cbr 210 ------- 0 0.0 2.1 63 126
- 0.33625 0 2 cbr 210 ------- 0 0.0 2.1 63 126
+ 0.33625 1 2 cbr 210 ------- 0 1.0 2.1 63 127
- 0.33625 1 2 cbr 210 ------- 0 1.0 2.1 63 127
r 0.337836 1 2 cbr 210 ------- 0 1.0 2.1 10 21
+ 0.34 0 2 cbr 210 ------- 0 0.0 2.1 64 128
- 0.34 0 2 cbr 210 ------- 0 0.0 2.1 64 128
+ 0.34 1 2 cbr 210 ------- 0 1.0 2.1 64 129
- 0.34 1 2 cbr 210 ------- 0 1.0 2.1 64 129
r 0.341586 1 2 cbr 210 ------- 0 1.0 2.1 11 23
+ 0.34375 0 2 cbr 210 ------- 0 0.0 2.1 65 130
- 0.34375 0 2 cbr 210 ------- 0 0.0 2.1 65 130
+ 0.34375 1 2 cbr 210 ------- 0 1.0 2.1 65 131
- 0.34375 1 2 cbr 210 ------- 0 1.0 2.1 65 131
r 0.345336 1 2 cbr 210 ------- 0 1.0 2.1 12 25
+ 0.3475 0 2 cbr 210 ------- 0 0.0 2.1 66 132
- 0.3475 0 2 cbr 210 ------- 0 0.0 2.1 66 132
+ 0.3475 1 2 cbr 210 ------- 0 1.0 2.1 66 133
- 0.3475 1 2 cbr 210 ------- 0 1.0 2.1 66 133
r 0.349086 1 2 cbr 210 ------- 0 1.0 2.1 13 27
+ 0.35125 0 2 cbr 210 ------- 0 0.0 2.1 67 134
- 0.35125 0 2 cbr 210 ------- 0 0.0 2.1 67 134
+ 0.35125 1 2 cbr 210 ------- 0 1.0 2.1 67 135
- 0.35125 1 2 cbr 210 ------- 0 1.0 2.1 67 135
r 0.352836 1 2 cbr 210 ------- 0 1.0 2.1 14 29
+ 0.355 0 2 cbr 210 ------- 0 0.0 2.1 68 136
- 0.355 0 2 cbr 210 ------- 0 0.0 2.1 68 136
+ 0.355 1 2 cbr 210 ------- 0 1.0 2.1 68 137
- 0.355 1 2 cbr 210 ------- 0 1.0 2.1 68 137
r 0.356586 1 2 cbr 210 ------- 0 1.0 2.1 15 31
+ 0.35875 0 2 cbr 210 ------- 0 0.0 2.1 69 138
- 0.35875 0 2 cbr 210 ------- 0 0.0 2.1 69 138
+ 0.35875 1 2 cbr 210 ------- 0 1.0 2.1 69 139
- 0.35875 1 2 cbr 210 ------- 0 1.0 2.1 69 139
r 0.360336 1 2 cbr 210 ------- 0 1.0 2.1 16 33
+ 0.3625 0 2 cbr 210 ------- 0 0.0 2.1 70 140
- 0.3625 0 2 cbr 210 ------- 0 0.0 2.1 70 140
+ 0.3625 1 2 cbr 210 ------- 0 1.0 2.1 70 141
- 0.3625 1 2 cbr 210 ------- 0 1.0 2.1 70 141
r 0.364086 1 2 cbr 210 ------- 0 1.0 2.1 17 35
+ 0.36625 0 2 cbr 210 ------- 0 0.0 2.1 71 142
- 0.36625 0 2 cbr 210 ------- 0 0.0 2.1 71 142
+ 0.36625 1 2 cbr 210 ------- 0 1.0 2.1 71 143
- 0.36625 1 2 cbr 210 ------- 0 1.0 2.1 71 143
r 0.367836 1 2 cbr 210 ------- 0 1.0 2.1 18 37
+ 0.37 0 2 cbr 210 ------- 0 0.0 2.1 72 144
- 0.37 0 2 cbr 210 ------- 0 0.0 2.1 72 144
+ 0.37 1 2 cbr 210 ------- 0 1.0 2.1 72 145
- 0.37 1 2 cbr 210 ------- 0 1.0 2.1 72 145
r 0.371586 1 2 cbr 210 ------- 0 1.0 2.1 19 39
+ 0.37375 0 2 cbr 210 ------- 0 0.0 2.1 73 146
- 0.37375 0 2 cbr 210 ------- 0 0.0 2.1 73 146
+ 0.37375 1 2 cbr 210 ------- 0 1.0 2.1 73 147
- 0.37375 1 2 cbr 210 ------- 0 1.0 2.1 73 147
r 0.375336 1 2 cbr 210 ------- 0 1.0 2.1 20 41
+ 0.3775 0 2 cbr 210 ------- 0 0.0 2.1 74 148
- 0.3775 0 2 cbr 210 ------- 0 0.0 2.1 74 148
+ 0.3775 1 2 cbr 210 ------- 0 1.0 2.1 74 149
- 0.3775 1 2 cbr 210 ------- 0 1.0 2.1 74 149
r 0.379086 1 2 cbr 210 ------- 0 1.0 2.1 21 43
+ 0.38125 0 2 cbr 210 ------- 0 0.0 2.1 75 150
- 0.38125 0 2 cbr 210 ------- 0 0.0 2.1 75 150
+ 0.38125 1 2 cbr 210 ------- 0 1.0 2.1 75 151
- 0.38125 1 2 cbr 210 ------- 0 1.0 2.1 75 151
r 0.382836 1 2 cbr 210 ------- 0 1.0 2.1 22 45
+ 0.385 0 2 cbr 210 ------- 0 0.0 2.1 76 152
- 0.385 0 2 cbr 210 ------- 0 0.0 2.1 76 152
+ 0.385 1 2 cbr 210 ------- 0 1.0 2.1 76 153
- 0.385 1 2 cbr 210 ------- 0 1.0 2.1 76 153
r 0.386586 1 2 cbr 210 ------- 0 1.0 2.1 23 47
+ 0.38875 0 2 cbr 210 ------- 0 0.0 2.1 77 154
- 0.38875 0 2 cbr 210 ------- 0 0.0 2.1 77 154
+ 0.38875 1 2 cbr 210 ------- 0 1.0 2.1 77 155
- 0.38875 1 2 cbr 210 ------- 0 1.0 2.1 77 155
r 0.390336 1 2 cbr 210 ------- 0 1.0 2.1 24 49
+ 0.3925 0 2 cbr 210 ------- 0 0.0 2.1 78 156
- 0.3925 0 2 cbr 210 ------- 0 0.0 2.1 78 156
+ 0.3925 1 2 cbr 210 ------- 0 1.0 2.1 78 157
- 0.3925 1 2 cbr 210 ------- 0 1.0 2.1 78 157
r 0.394086 1 2 cbr 210 ------- 0 1.0 2.1 25 51
+ 0.39625 0 2 cbr 210 ------- 0 0.0 2.1 79 158
- 0.39625 0 2 cbr 210 ------- 0 0.0 2.1 79 158
+ 0.39625 1 2 cbr 210 ------- 0 1.0 2.1 79 159
- 0.39625 1 2 cbr 210 ------- 0 1.0 2.1 79 159
r 0.397836 1 2 cbr 210 ------- 0 1.0 2.1 26 53
+ 0.4 0 2 cbr 210 ------- 0 0.0 2.1 80 160
- 0.4 0 2 cbr 210 ------- 0 0.0 2.1 80 160
+ 0.4 1 2 cbr 210 ------- 0 1.0 2.1 80 161
- 0.4 1 2 cbr 210 ------- 0 1.0 2.1 80 161
r 0.400168 0 2 cbr 210 ------- 0 0.0 2.1 0 0
r 0.401586 1 2 cbr 210 ------- 0 1.0 2.1 27 55
+ 0.40375 0 2 cbr 210 ------- 0 0.0 2.1 81 162
- 0.40375 0 2 cbr 210 ------- 0 0.0 2.1 81 162
+ 0.40375 1 2 cbr 210 ------- 0 1.0 2.1 81 163
- 0.40375 1 2 cbr 210 ------- 0 1.0 2.1 81 163
r 0.403918 0 2 cbr 210 ------- 0 0.0 2.1 1 2
r 0.405336 1 2 cbr 210 ------- 0 1.0 2.1 28 57
+ 0.4075 0 2 cbr 210 ------- 0 0.0 2.1 82 164
- 0.4075 0 2 cbr 210 ------- 0 0.0 2.1 82 164
+ 0.4075 1 2 cbr 210 ------- 0 1.0 2.1 82 165
- 0.4075 1 2 cbr 210 ------- 0 1.0 2.1 82 165
r 0.407668 0 2 cbr 210 ------- 0 0.0 2.1 2 4
r 0.409086 1 2 cbr 210 ------- 0 1.0 2.1 29 59
+ 0.41125 0 2 cbr 210 ------- 0 0.0 2.1 83 166
- 0.41125 0 2 cbr 210 ------- 0 0.0 2.1 83 166
+ 0.41125 1 2 cbr 210 ------- 0 1.0 2.1 83 167
- 0.41125 1 2 cbr 210 ------- 0 1.0 2.1 83 167
r 0.411418 0 2 cbr 210 ------- 0 0.0 2.1 3 6
r 0.412836 1 2 cbr 210 ------- 0 1.0 2.1 30 61
+ 0.415 0 2 cbr 210 ------- 0 0.0 2.1 84 168
- 0.415 0 2 cbr 210 ------- 0 0.0 2.1 84 168
+ 0.415 1 2 cbr 210 ------- 0 1.0 2.1 84 169
- 0.415 1 2 cbr 210 ------- 0 1.0 2.1 84 169
r 0.415168 0 2 cbr 210 ------- 0 0.0 2.1 4 8
r 0.416586 1 2 cbr 210 ------- 0 1.0 2.1 31 63
+ 0.41875 0 2 cbr 210 ------- 0 0.0 2.1 85 170
- 0.41875 0 2 cbr 210 ------- 0 0.0 2.1 85 170
+ 0.41875 1 2 cbr 210 ------- 0 1.0 2.1 85 171
- 0.41875 1 2 cbr 210 ------- 0 1.0 2.1 85 171
r 0.418918 0 2 cbr 210 ------- 0 0.0 2.1 5 10
r 0.420336 1 2 cbr 210 ------- 0 1.0 2.1 32 65
+ 0.4225 0 2 cbr 210 ------- 0 0.0 2.1 86 172
- 0.4225 0 2 cbr 210 ------- 0 0.0 2.1 86 172
+ 0.4225 1 2 cbr 210 ------- 0 1.0 2.1 86 173
- 0.4225 1 2 cbr 210 ------- 0 1.0 2.1 86 173
r 0.422668 0 2 cbr 210 ------- 0 0.0 2.1 6 12
r 0.424086 1 2 cbr 210 ------- 0 1.0 2.1 33 67
+ 0.42625 0 2 cbr 210 ------- 0 0.0 2.1 87 174
- 0.42625 0 2 cbr 210 ------- 0 0.0 2.1 87 174
+ 0.42625 1 2 cbr 210 ------- 0 1.0 2.1 87 175
- 0.42625 1 2 cbr 210 ------- 0 1.0 2.1 87 175
r 0.426418 0 2 cbr 210 ------- 0 0.0 2.1 7 14
r 0.427836 1 2 cbr 210 ------- 0 1.0 2.1 34 69
+ 0.43 0 2 cbr 210 ------- 0 0.0 2.1 88 176
- 0.43 0 2 cbr 210 ------- 0 0.0 2.1 88 176
+ 0.43 1 2 cbr 210 ------- 0 1.0 2.1 88 177
- 0.43 1 2 cbr 210 ------- 0 1.0 2.1 88 177
r 0.430168 0 2 cbr 210 ------- 0 0.0 2.1 8 16
r 0.431586 1 2 cbr 210 ------- 0 1.0 2.1 35 71
+ 0.43375 0 2 cbr 210 ------- 0 0.0 2.1 89 178
- 0.43375 0 2 cbr 210 ------- 0 0.0 2.1 89 178
+ 0.43375 1 2 cbr 210 ------- 0 1.0 2.1 89 179
- 0.43375 1 2 cbr 210 ------- 0 1.0 2.1 89 179
r 0.433918 0 2 cbr 210 ------- 0 0.0 2.1 9 18
r 0.435336 1 2 cbr 210 ------- 0 1.0 2.1 36 73
+ 0.4375 0 2 cbr 210 ------- 0 0.0 2.1 90 180
- 0.4375 0 2 cbr 210 ------- 0 0.0 2.1 90 180
+ 0.4375 1 2 cbr 210 ------- 0 1.0 2.1 90 181
- 0.4375 1 2 cbr 210 ------- 0 1.0 2.1 90 181
r 0.437668 0 2 cbr 210 ------- 0 0.0 2.1 10 20
r 0.439086 1 2 cbr 210 ------- 0 1.0 2.1 37 75
+ 0.44125 0 2 cbr 210 ------- 0 0.0 2.1 91 182
- 0.44125 0 2 cbr 210 ------- 0 0.0 2.1 91 182
+ 0.44125 1 2 cbr 210 ------- 0 1.0 2.1 91 183
- 0.44125 1 2 cbr 210 ------- 0 1.0 2.1 91 183
r 0.441418 0 2 cbr 210 ------- 0 0.0 2.1 11 22
r 0.442836 1 2 cbr 210 ------- 0 1.0 2.1 38 77
+ 0.445 0 2 cbr 210 ------- 0 0.0 2.1 92 184
- 0.445 0 2 cbr 210 ------- 0 0.0 2.1 92 184
+ 0.445 1 2 cbr 210 ------- 0 1.0 2.1 92 185
- 0.445 1 2 cbr 210 ------- 0 1.0 2.1 92 185
r 0.445168 0 2 cbr 210 ------- 0 0.0 2.1 12 24
r 0.446586 1 2 cbr 210 ------- 0 1.0 2.1 39 79
+ 0.44875 0 2 cbr 210 ------- 0 0.0 2.1 93 186
- 0.44875 0 2 cbr 210 ------- 0 0.0 2.1 93 186
+ 0.44875 1 2 cbr 210 ------- 0 1.0 2.1 93 187
- 0.44875 1 2 cbr 210 ------- 0 1.0 2.1 93 187
r 0.448918 0 2 cbr 210 ------- 0 0.0 2.1 13 26
r 0.450336 1 2 cbr 210 ------- 0 1.0 2.1 40 81
+ 0.4525 0 2 cbr 210 ------- 0 0.0 2.1 94 188
- 0.4525 0 2 cbr 210 ------- 0 0.0 2.1 94 188
+ 0.4525 1 2 cbr 210 ------- 0 1.0 2.1 94 189
- 0.4525 1 2 cbr 210 ------- 0 1.0 2.1 94 189
r 0.452668 0 2 cbr 210 ------- 0 0.0 2.1 14 28
r 0.454086 1 2 cbr 210 ------- 0 1.0 2.1 41 83
+ 0.45625 0 2 cbr 210 ------- 0 0.0 2.1 95 190
- 0.45625 0 2 cbr 210 ------- 0 0.0 2.1 95 190
+ 0.45625 1 2 cbr 210 ------- 0 1.0 2.1 95 191
- 0.45625 1 2 cbr 210 ------- 0 1.0 2.1 95 191
r 0.456418 0 2 cbr 210 ------- 0 0.0 2.1 15 30
r 0.457836 1 2 cbr 210 ------- 0 1.0 2.1 42 85
+ 0.46 0 2 cbr 210 ------- 0 0.0 2.1 96 192
- 0.46 0 2 cbr 210 ------- 0 0.0 2.1 96 192
+ 0.46 1 2 cbr 210 ------- 0 1.0 2.1 96 193
- 0.46 1 2 cbr 210 ------- 0 1.0 2.1 96 193
r 0.460168 0 2 cbr 210 ------- 0 0.0 2.1 16 32
r 0.461586 1 2 cbr 210 ------- 0 1.0 2.1 43 87
+ 0.46375 0 2 cbr 210 ------- 0 0.0 2.1 97 194
- 0.46375 0 2 cbr 210 ------- 0 0.0 2.1 97 194
+ 0.46375 1 2 cbr 210 ------- 0 1.0 2.1 97 195
- 0.46375 1 2 cbr 210 ------- 0 1.0 2.1 97 195
r 0.463918 0 2 cbr 210 ------- 0 0.0 2.1 17 34
r 0.465336 1 2 cbr 210 ------- 0 1.0 2.1 44 89
+ 0.4675 0 2 cbr 210 ------- 0 0.0 2.1 98 196
- 0.4675 0 2 cbr 210 ------- 0 0.0 2.1 98 196
+ 0.4675 1 2 cbr 210 ------- 0 1.0 2.1 98 197
- 0.4675 1 2 cbr 210 ------- 0 1.0 2.1 98 197
r 0.467668 0 2 cbr 210 ------- 0 0.0 2.1 18 36
r 0.469086 1 2 cbr 210 ------- 0 1.0 2.1 45 91
+ 0.47125 0 2 cbr 210 ------- 0 0.0 2.1 99 198
- 0.47125 0 2 cbr 210 ------- 0 0.0 2.1 99 198
+ 0.47125 1 2 cbr 210 ------- 0 1.0 2.1 99 199
- 0.47125 1 2 cbr 210 ------- 0 1.0 2.1 99 199
r 0.471418 0 2 cbr 210 ------- 0 0.0 2.1 19 38
r 0.472836 1 2 cbr 210 ------- 0 1.0 2.1 46 93
+ 0.475 0 2 cbr 210 ------- 0 0.0 2.1 100 200
- 0.475 0 2 cbr 210 ------- 0 0.0 2.1 100 200
+ 0.475 1 2 cbr 210 ------- 0 1.0 2.1 100 201
- 0.475 1 2 cbr 210 ------- 0 1.0 2.1 100 201
r 0.475168 0 2 cbr 210 ------- 0 0.0 2.1 20 40
r 0.476586 1 2 cbr 210 ------- 0 1.0 2.1 47 95
+ 0.47875 0 2 cbr 210 ------- 0 0.0 2.1 101 202
- 0.47875 0 2 cbr 210 ------- 0 0.0 2.1 101 202
+ 0.47875 1 2 cbr 210 ------- 0 1.0 2.1 101 203
- 0.47875 1 2 cbr 210 ------- 0 1.0 2.1 101 203
r 0.478918 0 2 cbr 210 ------- 0 0.0 2.1 21 42
r 0.480336 1 2 cbr 210 ------- 0 1.0 2.1 48 97
+ 0.4825 0 2 cbr 210 ------- 0 0.0 2.1 102 204
- 0.4825 0 2 cbr 210 ------- 0 0.0 2.1 102 204
+ 0.4825 1 2 cbr 210 ------- 0 1.0 2.1 102 205
- 0.4825 1 2 cbr 210 ------- 0 1.0 2.1 102 205
r 0.482668 0 2 cbr 210 ------- 0 0.0 2.1 22 44
r 0.484086 1 2 cbr 210 ------- 0 1.0 2.1 49 99
+ 0.48625 0 2 cbr 210 ------- 0 0.0 2.1 103 206
- 0.48625 0 2 cbr 210 ------- 0 0.0 2.1 103 206
+ 0.48625 1 2 cbr 210 ------- 0 1.0 2.1 103 207
- 0.48625 1 2 cbr 210 ------- 0 1.0 2.1 103 207
r 0.486418 0 2 cbr 210 ------- 0 0.0 2.1 23 46
r 0.487836 1 2 cbr 210 ------- 0 1.0 2.1 50 101
+ 0.49 0 2 cbr 210 ------- 0 0.0 2.1 104 208
- 0.49 0 2 cbr 210 ------- 0 0.0 2.1 104 208
+ 0.49 1 2 cbr 210 ------- 0 1.0 2.1 104 209
- 0.49 1 2 cbr 210 ------- 0 1.0 2.1 104 209
r 0.490168 0 2 cbr 210 ------- 0 0.0 2.1 24 48
r 0.491586 1 2 cbr 210 ------- 0 1.0 2.1 51 103
+ 0.49375 0 2 cbr 210 ------- 0 0.0 2.1 105 210
- 0.49375 0 2 cbr 210 ------- 0 0.0 2.1 105 210
+ 0.49375 1 2 cbr 210 ------- 0 1.0 2.1 105 211
- 0.49375 1 2 cbr 210 ------- 0 1.0 2.1 105 211
r 0.493918 0 2 cbr 210 ------- 0 0.0 2.1 25 50
r 0.495336 1 2 cbr 210 ------- 0 1.0 2.1 52 105
+ 0.4975 0 2 cbr 210 ------- 0 0.0 2.1 106 212
- 0.4975 0 2 cbr 210 ------- 0 0.0 2.1 106 212
+ 0.4975 1 2 cbr 210 ------- 0 1.0 2.1 106 213
- 0.4975 1 2 cbr 210 ------- 0 1.0 2.1 106 213
r 0.497668 0 2 cbr 210 ------- 0 0.0 2.1 26 52
r 0.499086 1 2 cbr 210 ------- 0 1.0 2.1 53 107
+ 0.50125 0 2 cbr 210 ------- 0 0.0 2.1 107 214
- 0.50125 0 2 cbr 210 ------- 0 0.0 2.1 107 214
+ 0.50125 1 2 cbr 210 ------- 0 1.0 2.1 107 215
- 0.50125 1 2 cbr 210 ------- 0 1.0 2.1 107 215
r 0.501418 0 2 cbr 210 ------- 0 0.0 2.1 27 54
r 0.502836 1 2 cbr 210 ------- 0 1.0 2.1 54 109
+ 0.505 0 2 cbr 210 ------- 0 0.0 2.1 108 216
- 0.505 0 2 cbr 210 ------- 0 0.0 2.1 108 216
+ 0.505 1 2 cbr 210 ------- 0 1.0 2.1 108 217
- 0.505 1 2 cbr 210 ------- 0 1.0 2.1 108 217
r 0.505168 0 2 cbr 210 ------- 0 0.0 2.1 28 56
r 0.506586 1 2 cbr 210 ------- 0 1.0 2.1 55 111
+ 0.50875 0 2 cbr 210 ------- 0 0.0 2.1 109 218
- 0.50875 0 2 cbr 210 ------- 0 0.0 2.1 109 218
+ 0.50875 1 2 cbr 210 ------- 0 1.0 2.1 109 219
- 0.50875 1 2 cbr 210 ------- 0 1.0 2.1 109 219
r 0.508918 0 2 cbr 210 ------- 0 0.0 2.1 29 58
r 0.510336 1 2 cbr 210 ------- 0 1.0 2.1 56 113
+ 0.5125 0 2 cbr 210 ------- 0 0.0 2.1 110 220
- 0.5125 0 2 cbr 210 ------- 0 0.0 2.1 110 220
+ 0.5125 1 2 cbr 210 ------- 0 1.0 2.1 110 221
- 0.5125 1 2 cbr 210 ------- 0 1.0 2.1 110 221
r 0.512668 0 2 cbr 210 ------- 0 0.0 2.1 30 60
r 0.514086 1 2 cbr 210 ------- 0 1.0 2.1 57 115
+ 0.51625 0 2 cbr 210 ------- 0 0.0 2.1 111 222
- 0.51625 0 2 cbr 210 ------- 0 0.0 2.1 111 222
+ 0.51625 1 2 cbr 210 ------- 0 1.0 2.1 111 223
- 0.51625 1 2 cbr 210 ------- 0 1.0 2.1 111 223
r 0.516418 0 2 cbr 210 ------- 0 0.0 2.1 31 62
r 0.517836 1 2 cbr 210 ------- 0 1.0 2.1 58 117
+ 0.52 0 2 cbr 210 ------- 0 0.0 2.1 112 224
- 0.52 0 2 cbr 210 ------- 0 0.0 2.1 112 224
+ 0.52 1 2 cbr 210 ------- 0 1.0 2.1 112 225
- 0.52 1 2 cbr 210 ------- 0 1.0 2.1 112 225
r 0.520168 0 2 cbr 210 ------- 0 0.0 2.1 32 64
r 0.521586 1 2 cbr 210 ------- 0 1.0 2.1 59 119
+ 0.52375 0 2 cbr 210 ------- 0 0.0 2.1 113 226
- 0.52375 0 2 cbr 210 ------- 0 0.0 2.1 113 226
+ 0.52375 1 2 cbr 210 ------- 0 1.0 2.1 113 227
- 0.52375 1 2 cbr 210 ------- 0 1.0 2.1 113 227
r 0.523918 0 2 cbr 210 ------- 0 0.0 2.1 33 66
r 0.525336 1 2 cbr 210 ------- 0 1.0 2.1 60 121
+ 0.5275 0 2 cbr 210 ------- 0 0.0 2.1 114 228
- 0.5275 0 2 cbr 210 ------- 0 0.0 2.1 114 228
+ 0.5275 1 2 cbr 210 ------- 0 1.0 2.1 114 229
- 0.5275 1 2 cbr 210 ------- 0 1.0 2.1 114 229
r 0.527668 0 2 cbr 210 ------- 0 0.0 2.1 34 68
r 0.529086 1 2 cbr 210 ------- 0 1.0 2.1 61 123
+ 0.53125 0 2 cbr 210 ------- 0 0.0 2.1 115 230
- 0.53125 0 2 cbr 210 ------- 0 0.0 2.1 115 230
+ 0.53125 1 2 cbr 210 ------- 0 1.0 2.1 115 231
- 0.53125 1 2 cbr 210 ------- 0 1.0 2.1 115 231
r 0.531418 0 2 cbr 210 ------- 0 0.0 2.1 35 70
r 0.532836 1 2 cbr 210 ------- 0 1.0 2.1 62 125
+ 0.535 0 2 cbr 210 ------- 0 0.0 2.1 116 232
- 0.535 0 2 cbr 210 ------- 0 0.0 2.1 116 232
+ 0.535 1 2 cbr 210 ------- 0 1.0 2.1 116 233
- 0.535 1 2 cbr 210 ------- 0 1.0 2.1 116 233
r 0.535168 0 2 cbr 210 ------- 0 0.0 2.1 36 72
r 0.536586 1 2 cbr 210 ------- 0 1.0 2.1 63 127
+ 0.53875 0 2 cbr 210 ------- 0 0.0 2.1 117 234
- 0.53875 0 2 cbr 210 ------- 0 0.0 2.1 117 234
+ 0.53875 1 2 cbr 210 ------- 0 1.0 2.1 117 235
- 0.53875 1 2 cbr 210 ------- 0 1.0 2.1 117 235
r 0.538918 0 2 cbr 210 ------- 0 0.0 2.1 37 74
r 0.540336 1 2 cbr 210 ------- 0 1.0 2.1 64 129
+ 0.5425 0 2 cbr 210 ------- 0 0.0 2.1 118 236
- 0.5425 0 2 cbr 210 ------- 0 0.0 2.1 118 236
+ 0.5425 1 2 cbr 210 ------- 0 1.0 2.1 118 237
- 0.5425 1 2 cbr 210 ------- 0 1.0 2.1 118 237
r 0.542668 0 2 cbr 210 ------- 0 0.0 2.1 38 76
r 0.544086 1 2 cbr 210 ------- 0 1.0 2.1 65 131
+ 0.54625 0 2 cbr 210 ------- 0 0.0 2.1 119 238
- 0.54625 0 2 cbr 210 ------- 0 0.0 2.1 119 238
+ 0.54625 1 2 cbr 210 ------- 0 1.0 2.1 119 239
- 0.54625 1 2 cbr 210 ------- 0 1.0 2.1 119 239
r 0.546418 0 2 cbr 210 ------- 0 0.0 2.1 39 78
r 0.547836 1 2 cbr 210 ------- 0 1.0 2.1 66 133
+ 0.55 0 2 cbr 210 ------- 0 0.0 2.1 120 240
- 0.55 0 2 cbr 210 ------- 0 0.0 2.1 120 240
+ 0.55 1 2 cbr 210 ------- 0 1.0 2.1 120 241
- 0.55 1 2 cbr 210 ------- 0 1.0 2.1 120 241
r 0.550168 0 2 cbr 210 ------- 0 0.0 2.1 40 80
r 0.551586 1 2 cbr 210 ------- 0 1.0 2.1 67 135
+ 0.55375 0 2 cbr 210 ------- 0 0.0 2.1 121 242
- 0.55375 0 2 cbr 210 ------- 0 0.0 2.1 121 242
+ 0.55375 1 2 cbr 210 ------- 0 1.0 2.1 121 243
- 0.55375 1 2 cbr 210 ------- 0 1.0 2.1 121 243
r 0.553918 0 2 cbr 210 ------- 0 0.0 2.1 41 82
r 0.555336 1 2 cbr 210 ------- 0 1.0 2.1 68 137
+ 0.5575 0 2 cbr 210 ------- 0 0.0 2.1 122 244
- 0.5575 0 2 cbr 210 ------- 0 0.0 2.1 122 244
+ 0.5575 1 2 cbr 210 ------- 0 1.0 2.1 122 245
- 0.5575 1 2 cbr 210 ------- 0 1.0 2.1 122 245
r 0.557668 0 2 cbr 210 ------- 0 0.0 2.1 42 84
r 0.559086 1 2 cbr 210 ------- 0 1.0 2.1 69 139
+ 0.56125 0 2 cbr 210 ------- 0 0.0 2.1 123 246
- 0.56125 0 2 cbr 210 ------- 0 0.0 2.1 123 246
+ 0.56125 1 2 cbr 210 ------- 0 1.0 2.1 123 247
- 0.56125 1 2 cbr 210 ------- 0 1.0 2.1 123 247
r 0.561418 0 2 cbr 210 ------- 0 0.0 2.1 43 86
r 0.562836 1 2 cbr 210 ------- 0 1.0 2.1 70 141
+ 0.565 0 2 cbr 210 ------- 0 0.0 2.1 124 248
- 0.565 0 2 cbr 210 ------- 0 0.0 2.1 124 248
+ 0.565 1 2 cbr 210 ------- 0 1.0 2.1 124 249
- 0.565 1 2 cbr 210 ------- 0 1.0 2.1 124 249
r 0.565168 0 2 cbr 210 ------- 0 0.0 2.1 44 88
r 0.566586 1 2 cbr 210 ------- 0 1.0 2.1 71 143
+ 0.56875 0 2 cbr 210 ------- 0 0.0 2.1 125 250
- 0.56875 0 2 cbr 210 ------- 0 0.0 2.1 125 250
+ 0.56875 1 2 cbr 210 ------- 0 1.0 2.1 125 251
- 0.56875 1 2 cbr 210 ------- 0 1.0 2.1 125 251
r 0.568918 0 2 cbr 210 ------- 0 0.0 2.1 45 90
r 0.570336 1 2 cbr 210 ------- 0 1.0 2.1 72 145
+ 0.5725 0 2 cbr 210 ------- 0 0.0 2.1 126 252
- 0.5725 0 2 cbr 210 ------- 0 0.0 2.1 126 252
+ 0.5725 1 2 cbr 210 ------- 0 1.0 2.1 126 253
- 0.5725 1 2 cbr 210 ------- 0 1.0 2.1 126 253
r 0.572668 0 2 cbr 210 ------- 0 0.0 2.1 46 92
r 0.574086 1 2 cbr 210 ------- 0 1.0 2.1 73 147
+ 0.57625 0 2 cbr 210 ------- 0 0.0 2.1 127 254
- 0.57625 0 2 cbr 210 ------- 0 0.0 2.1 127 254
+ 0.57625 1 2 cbr 210 ------- 0 1.0 2.1 127 255
- 0.57625 1 2 cbr 210 ------- 0 1.0 2.1 127 255
r 0.576418 0 2 cbr 210 ------- 0 0.0 2.1 47 94
r 0.577836 1 2 cbr 210 ------- 0 1.0 2.1 74 149
+ 0.58 0 2 cbr 210 ------- 0 0.0 2.1 128 256
- 0.58 0 2 cbr 210 ------- 0 0.0 2.1 128 256
+ 0.58 1 2 cbr 210 ------- 0 1.0 2.1 128 257
- 0.58 1 2 cbr 210 ------- 0 1.0 2.1 128 257
r 0.580168 0 2 cbr 210 ------- 0 0.0 2.1 48 96
r 0.581586 1 2 cbr 210 ------- 0 1.0 2.1 75 151
+ 0.58375 0 2 cbr 210 ------- 0 0.0 2.1 129 258
- 0.58375 0 2 cbr 210 ------- 0 0.0 2.1 129 258
+ 0.58375 1 2 cbr 210 ------- 0 1.0 2.1 129 259
- 0.58375 1 2 cbr 210 ------- 0 1.0 2.1 129 259
r 0.583918 0 2 cbr 210 ------- 0 0.0 2.1 49 98
r 0.585336 1 2 cbr 210 ------- 0 1.0 2.1 76 153
+ 0.5875 0 2 cbr 210 ------- 0 0.0 2.1 130 260
- 0.5875 0 2 cbr 210 ------- 0 0.0 2.1 130 260
+ 0.5875 1 2 cbr 210 ------- 0 1.0 2.1 130 261
- 0.5875 1 2 cbr 210 ------- 0 1.0 2.1 130 261