n -t 0 -s 0 -S DLABEL -l "Source1" -L ""
n -t 0 -s 2 -S DLABEL -l "Source2" -L ""
n -t 0 -s 3 -S DLABEL -l "Destination2" -L ""
n -t 0 -s 5 -S DLABEL -l "Destination1" -L ""
V -t * -v 1.0a5 -a 0
A -t * -n 1 -p 0 -o 0x7fffffff -c 30 -a 1
A -t * -h 1 -m 1073741823 -s 0
n -t * -a 4 -s 4 -S UP -v circle -c black -i black
n -t * -a 0 -s 0 -S UP -v circle -c Magenta -i Magenta
n -t * -a 5 -s 5 -S UP -v circle -c Blue -i Blue
n -t * -a 1 -s 1 -S UP -v circle -c black -i black
n -t * -a 2 -s 2 -S UP -v circle -c Magenta -i Magenta
n -t * -a 3 -s 3 -S UP -v circle -c Blue -i Blue
l -t * -s 4 -d 5 -S UP -r 1000000 -D 0.001 -c black
X -t * -n 6 -r 100Mb -D 100ms -o left
L -t * -s 6 -d 0 -o up
L -t * -s 6 -d 1 -o down
L -t * -s 6 -d 2 -o up
L -t * -s 6 -d 3 -o down
L -t * -s 6 -d 4 -o up
h -t 0.1 -s 0 -d 6 -p tcp -e 40 -c 0 -i 0 -a 0 -x {0.0 5.0 0 ------- null}
+ -t 0.2 -s 0 -d 6 -p tcp -e 40 -c 0 -i 0 -a 0 -x {0.0 5.0 0 ------- null}
- -t 0.2 -s 0 -d 6 -p tcp -e 40 -c 0 -i 0 -a 0 -x {0.0 5.0 0 ------- null}
h -t 0.2 -s 0 -d 6 -p tcp -e 40 -c 0 -i 0 -a 0 -x {0.0 5.0 -1 ------- null}
r -t 0.30000912 -s 6 -d 4 -p tcp -e 40 -c 0 -i 0 -a 0 -x {0.0 5.0 0 ------- null}
+ -t 0.30000912 -s 4 -d 5 -p tcp -e 40 -c 0 -i 0 -a 0 -x {0.0 5.0 0 ------- null}
- -t 0.30000912 -s 4 -d 5 -p tcp -e 40 -c 0 -i 0 -a 0 -x {0.0 5.0 0 ------- null}
h -t 0.30000912 -s 4 -d 5 -p tcp -e 40 -c 0 -i 0 -a 0 -x {0.0 5.0 -1 ------- null}
r -t 0.30132912 -s 4 -d 5 -p tcp -e 40 -c 0 -i 0 -a 0 -x {0.0 5.0 0 ------- null}
h -t 3.1 -s 0 -d 6 -p tcp -e 40 -c 0 -i 1 -a 0 -x {0.0 5.0 0 ---A--- null}
+ -t 3.2 -s 0 -d 6 -p tcp -e 40 -c 0 -i 1 -a 0 -x {0.0 5.0 0 ---A--- null}
- -t 3.2 -s 0 -d 6 -p tcp -e 40 -c 0 -i 1 -a 0 -x {0.0 5.0 0 ---A--- null}
h -t 3.2 -s 0 -d 6 -p tcp -e 40 -c 0 -i 1 -a 0 -x {0.0 5.0 -1 ---A--- null}
r -t 3.30000912 -s 6 -d 4 -p tcp -e 40 -c 0 -i 1 -a 0 -x {0.0 5.0 0 ---A--- null}
+ -t 3.30000912 -s 4 -d 5 -p tcp -e 40 -c 0 -i 1 -a 0 -x {0.0 5.0 0 ---A--- null}
- -t 3.30000912 -s 4 -d 5 -p tcp -e 40 -c 0 -i 1 -a 0 -x {0.0 5.0 0 ---A--- null}
h -t 3.30000912 -s 4 -d 5 -p tcp -e 40 -c 0 -i 1 -a 0 -x {0.0 5.0 -1 ---A--- null}
r -t 3.30132912 -s 4 -d 5 -p tcp -e 40 -c 0 -i 1 -a 0 -x {0.0 5.0 0 ---A--- null}
h -t 9.1 -s 0 -d 6 -p tcp -e 40 -c 0 -i 2 -a 0 -x {0.0 5.0 0 ---A--- null}
+ -t 9.2 -s 0 -d 6 -p tcp -e 40 -c 0 -i 2 -a 0 -x {0.0 5.0 0 ---A--- null}
- -t 9.2 -s 0 -d 6 -p tcp -e 40 -c 0 -i 2 -a 0 -x {0.0 5.0 0 ---A--- null}
h -t 9.2 -s 0 -d 6 -p tcp -e 40 -c 0 -i 2 -a 0 -x {0.0 5.0 -1 ---A--- null}
r -t 9.30000912 -s 6 -d 4 -p tcp -e 40 -c 0 -i 2 -a 0 -x {0.0 5.0 0 ---A--- null}
+ -t 9.30000912 -s 4 -d 5 -p tcp -e 40 -c 0 -i 2 -a 0 -x {0.0 5.0 0 ---A--- null}
- -t 9.30000912 -s 4 -d 5 -p tcp -e 40 -c 0 -i 2 -a 0 -x {0.0 5.0 0 ---A--- null}
h -t 9.30000912 -s 4 -d 5 -p tcp -e 40 -c 0 -i 2 -a 0 -x {0.0 5.0 -1 ---A--- null}
r -t 9.30132912 -s 4 -d 5 -p tcp -e 40 -c 0 -i 2 -a 0 -x {0.0 5.0 0 ---A--- null}
h -t 10 -s 2 -d 6 -p tcp -e 40 -c 0 -i 3 -a 0 -x {2.0 3.0 0 ------- null}
+ -t 10.1 -s 2 -d 6 -p tcp -e 40 -c 0 -i 3 -a 0 -x {2.0 3.0 0 ------- null}
- -t 10.1 -s 2 -d 6 -p tcp -e 40 -c 0 -i 3 -a 0 -x {2.0 3.0 0 ------- null}
h -t 10.1 -s 2 -d 6 -p tcp -e 40 -c 0 -i 3 -a 0 -x {2.0 3.0 -1 ------- null}
r -t 10.20000912 -s 6 -d 3 -p tcp -e 40 -c 0 -i 3 -a 0 -x {2.0 3.0 0 ------- null}
h -t 10.20000912 -s 3 -d 6 -p ack -e 40 -c 0 -i 4 -a 0 -x {3.0 2.0 0 ------- null}
+ -t 10.30000912 -s 3 -d 6 -p ack -e 40 -c 0 -i 4 -a 0 -x {3.0 2.0 0 ------- null}
- -t 10.30000912 -s 3 -d 6 -p ack -e 40 -c 0 -i 4 -a 0 -x {3.0 2.0 0 ------- null}
h -t 10.30000912 -s 3 -d 6 -p ack -e 40 -c 0 -i 4 -a 0 -x {3.0 2.0 -1 ------- null}
r -t 10.40001824 -s 6 -d 2 -p ack -e 40 -c 0 -i 4 -a 0 -x {3.0 2.0 0 ------- null}
h -t 10.40001824 -s 2 -d 6 -p tcp -e 1040 -c 0 -i 5 -a 0 -x {2.0 3.0 1 ------- null}
h -t 10.40001824 -s 2 -d 6 -p tcp -e 1040 -c 0 -i 6 -a 0 -x {2.0 3.0 2 ------- null}
+ -t 10.50001824 -s 2 -d 6 -p tcp -e 1040 -c 0 -i 5 -a 0 -x {2.0 3.0 1 ------- null}
- -t 10.50001824 -s 2 -d 6 -p tcp -e 1040 -c 0 -i 5 -a 0 -x {2.0 3.0 1 ------- null}
h -t 10.50001824 -s 2 -d 6 -p tcp -e 1040 -c 0 -i 5 -a 0 -x {2.0 3.0 -1 ------- null}
+ -t 10.50001824 -s 2 -d 6 -p tcp -e 1040 -c 0 -i 6 -a 0 -x {2.0 3.0 2 ------- null}
- -t 10.50010352 -s 2 -d 6 -p tcp -e 1040 -c 0 -i 6 -a 0 -x {2.0 3.0 2 ------- null}
h -t 10.50010352 -s 2 -d 6 -p tcp -e 1040 -c 0 -i 6 -a 0 -x {2.0 3.0 -1 ------- null}
r -t 10.60010656 -s 6 -d 3 -p tcp -e 1040 -c 0 -i 5 -a 0 -x {2.0 3.0 1 ------- null}
h -t 10.60010656 -s 3 -d 6 -p ack -e 40 -c 0 -i 7 -a 0 -x {3.0 2.0 1 ------- null}
r -t 10.60019184 -s 6 -d 3 -p tcp -e 1040 -c 0 -i 6 -a 0 -x {2.0 3.0 2 ------- null}
h -t 10.60019184 -s 3 -d 6 -p ack -e 40 -c 0 -i 8 -a 0 -x {3.0 2.0 2 ------- null}
+ -t 10.70010656 -s 3 -d 6 -p ack -e 40 -c 0 -i 7 -a 0 -x {3.0 2.0 1 ------- null}
- -t 10.70010656 -s 3 -d 6 -p ack -e 40 -c 0 -i 7 -a 0 -x {3.0 2.0 1 ------- null}
h -t 10.70010656 -s 3 -d 6 -p ack -e 40 -c 0 -i 7 -a 0 -x {3.0 2.0 -1 ------- null}
+ -t 10.70019184 -s 3 -d 6 -p ack -e 40 -c 0 -i 8 -a 0 -x {3.0 2.0 2 ------- null}
- -t 10.70019184 -s 3 -d 6 -p ack -e 40 -c 0 -i 8 -a 0 -x {3.0 2.0 2 ------- null}
h -t 10.70019184 -s 3 -d 6 -p ack -e 40 -c 0 -i 8 -a 0 -x {3.0 2.0 -1 ------- null}
r -t 10.80011568 -s 6 -d 2 -p ack -e 40 -c 0 -i 7 -a 0 -x {3.0 2.0 1 ------- null}
h -t 10.80011568 -s 2 -d 6 -p tcp -e 1040 -c 0 -i 9 -a 0 -x {2.0 3.0 3 ------- null}
h -t 10.80011568 -s 2 -d 6 -p tcp -e 1040 -c 0 -i 10 -a 0 -x {2.0 3.0 4 ------- null}
r -t 10.80020096 -s 6 -d 2 -p ack -e 40 -c 0 -i 8 -a 0 -x {3.0 2.0 2 ------- null}
h -t 10.80020096 -s 2 -d 6 -p tcp -e 1040 -c 0 -i 11 -a 0 -x {2.0 3.0 5 ------- null}
h -t 10.80020096 -s 2 -d 6 -p tcp -e 1040 -c 0 -i 12 -a 0 -x {2.0 3.0 6 ------- null}
+ -t 10.90011568 -s 2 -d 6 -p tcp -e 1040 -c 0 -i 9 -a 0 -x {2.0 3.0 3 ------- null}
- -t 10.90011568 -s 2 -d 6 -p tcp -e 1040 -c 0 -i 9 -a 0 -x {2.0 3.0 3 ------- null}
h -t 10.90011568 -s 2 -d 6 -p tcp -e 1040 -c 0 -i 9 -a 0 -x {2.0 3.0 -1 ------- null}
+ -t 10.90011568 -s 2 -d 6 -p tcp -e 1040 -c 0 -i 10 -a 0 -x {2.0 3.0 4 ------- null}
+ -t 10.90020096 -s 2 -d 6 -p tcp -e 1040 -c 0 -i 11 -a 0 -x {2.0 3.0 5 ------- null}
+ -t 10.90020096 -s 2 -d 6 -p tcp -e 1040 -c 0 -i 12 -a 0 -x {2.0 3.0 6 ------- null}
- -t 10.90020096 -s 2 -d 6 -p tcp -e 1040 -c 0 -i 10 -a 0 -x {2.0 3.0 4 ------- null}
h -t 10.90020096 -s 2 -d 6 -p tcp -e 1040 -c 0 -i 10 -a 0 -x {2.0 3.0 -1 ------- null}
- -t 10.90028624 -s 2 -d 6 -p tcp -e 1040 -c 0 -i 11 -a 0 -x {2.0 3.0 5 ------- null}
h -t 10.90028624 -s 2 -d 6 -p tcp -e 1040 -c 0 -i 11 -a 0 -x {2.0 3.0 -1 ------- null}
- -t 10.90037152 -s 2 -d 6 -p tcp -e 1040 -c 0 -i 12 -a 0 -x {2.0 3.0 6 ------- null}
h -t 10.90037152 -s 2 -d 6 -p tcp -e 1040 -c 0 -i 12 -a 0 -x {2.0 3.0 -1 ------- null}
r -t 11.000204 -s 6 -d 3 -p tcp -e 1040 -c 0 -i 9 -a 0 -x {2.0 3.0 3 ------- null}
h -t 11.000204 -s 3 -d 6 -p ack -e 40 -c 0 -i 13 -a 0 -x {3.0 2.0 3 ------- null}
r -t 11.00028928 -s 6 -d 3 -p tcp -e 1040 -c 0 -i 10 -a 0 -x {2.0 3.0 4 ------- null}
h -t 11.00028928 -s 3 -d 6 -p ack -e 40 -c 0 -i 14 -a 0 -x {3.0 2.0 4 ------- null}
r -t 11.00037456 -s 6 -d 3 -p tcp -e 1040 -c 0 -i 11 -a 0 -x {2.0 3.0 5 ------- null}
h -t 11.00037456 -s 3 -d 6 -p ack -e 40 -c 0 -i 15 -a 0 -x {3.0 2.0 5 ------- null}
r -t 11.00045984 -s 6 -d 3 -p tcp -e 1040 -c 0 -i 12 -a 0 -x {2.0 3.0 6 ------- null}
h -t 11.00045984 -s 3 -d 6 -p ack -e 40 -c 0 -i 16 -a 0 -x {3.0 2.0 6 ------- null}
+ -t 11.100204 -s 3 -d 6 -p ack -e 40 -c 0 -i 13 -a 0 -x {3.0 2.0 3 ------- null}
- -t 11.100204 -s 3 -d 6 -p ack -e 40 -c 0 -i 13 -a 0 -x {3.0 2.0 3 ------- null}
h -t 11.100204 -s 3 -d 6 -p ack -e 40 -c 0 -i 13 -a 0 -x {3.0 2.0 -1 ------- null}
+ -t 11.10028928 -s 3 -d 6 -p ack -e 40 -c 0 -i 14 -a 0 -x {3.0 2.0 4 ------- null}
- -t 11.10028928 -s 3 -d 6 -p ack -e 40 -c 0 -i 14 -a 0 -x {3.0 2.0 4 ------- null}
h -t 11.10028928 -s 3 -d 6 -p ack -e 40 -c 0 -i 14 -a 0 -x {3.0 2.0 -1 ------- null}
+ -t 11.10037456 -s 3 -d 6 -p ack -e 40 -c 0 -i 15 -a 0 -x {3.0 2.0 5 ------- null}
- -t 11.10037456 -s 3 -d 6 -p ack -e 40 -c 0 -i 15 -a 0 -x {3.0 2.0 5 ------- null}
h -t 11.10037456 -s 3 -d 6 -p ack -e 40 -c 0 -i 15 -a 0 -x {3.0 2.0 -1 ------- null}
+ -t 11.10045984 -s 3 -d 6 -p ack -e 40 -c 0 -i 16 -a 0 -x {3.0 2.0 6 ------- null}
- -t 11.10045984 -s 3 -d 6 -p ack -e 40 -c 0 -i 16 -a 0 -x {3.0 2.0 6 ------- null}
h -t 11.10045984 -s 3 -d 6 -p ack -e 40 -c 0 -i 16 -a 0 -x {3.0 2.0 -1 ------- null}
r -t 11.20021312 -s 6 -d 2 -p ack -e 40 -c 0 -i 13 -a 0 -x {3.0 2.0 3 ------- null}
h -t 11.20021312 -s 2 -d 6 -p tcp -e 1040 -c 0 -i 17 -a 0 -x {2.0 3.0 7 ------- null}
h -t 11.20021312 -s 2 -d 6 -p tcp -e 1040 -c 0 -i 18 -a 0 -x {2.0 3.0 8 ------- null}
r -t 11.2002984 -s 6 -d 2 -p ack -e 40 -c 0 -i 14 -a 0 -x {3.0 2.0 4 ------- null}
h -t 11.2002984 -s 2 -d 6 -p tcp -e 1040 -c 0 -i 19 -a 0 -x {2.0 3.0 9 ------- null}
h -t 11.2002984 -s 2 -d 6 -p tcp -e 1040 -c 0 -i 20 -a 0 -x {2.0 3.0 10 ------- null}
r -t 11.20038368 -s 6 -d 2 -p ack -e 40 -c 0 -i 15 -a 0 -x {3.0 2.0 5 ------- null}
h -t 11.20038368 -s 2 -d 6 -p tcp -e 1040 -c 0 -i 21 -a 0 -x {2.0 3.0 11 ------- null}
h -t 11.20038368 -s 2 -d 6 -p tcp -e 1040 -c 0 -i 22 -a 0 -x {2.0 3.0 12 ------- null}
r -t 11.20046896 -s 6 -d 2 -p ack -e 40 -c 0 -i 16 -a 0 -x {3.0 2.0 6 ------- null}
h -t 11.20046896 -s 2 -d 6 -p tcp -e 1040 -c 0 -i 23 -a 0 -x {2.0 3.0 13 ------- null}
h -t 11.20046896 -s 2 -d 6 -p tcp -e 1040 -c 0 -i 24 -a 0 -x {2.0 3.0 14 ------- null}
+ -t 11.30021312 -s 2 -d 6 -p tcp -e 1040 -c 0 -i 17 -a 0 -x {2.0 3.0 7 ------- null}
- -t 11.30021312 -s 2 -d 6 -p tcp -e 1040 -c 0 -i 17 -a 0 -x {2.0 3.0 7 ------- null}
h -t 11.30021312 -s 2 -d 6 -p tcp -e 1040 -c 0 -i 17 -a 0 -x {2.0 3.0 -1 ------- null}
+ -t 11.30021312 -s 2 -d 6 -p tcp -e 1040 -c 0 -i 18 -a 0 -x {2.0 3.0 8 ------- null}
+ -t 11.3002984 -s 2 -d 6 -p tcp -e 1040 -c 0 -i 19 -a 0 -x {2.0 3.0 9 ------- null}
+ -t 11.3002984 -s 2 -d 6 -p tcp -e 1040 -c 0 -i 20 -a 0 -x {2.0 3.0 10 ------- null}
- -t 11.3002984 -s 2 -d 6 -p tcp -e 1040 -c 0 -i 18 -a 0 -x {2.0 3.0 8 ------- null}
h -t 11.3002984 -s 2 -d 6 -p tcp -e 1040 -c 0 -i 18 -a 0 -x {2.0 3.0 -1 ------- null}
+ -t 11.30038368 -s 2 -d 6 -p tcp -e 1040 -c 0 -i 21 -a 0 -x {2.0 3.0 11 ------- null}
+ -t 11.30038368 -s 2 -d 6 -p tcp -e 1040 -c 0 -i 22 -a 0 -x {2.0 3.0 12 ------- null}
- -t 11.30038368 -s 2 -d 6 -p tcp -e 1040 -c 0 -i 19 -a 0 -x {2.0 3.0 9 ------- null}
h -t 11.30038368 -s 2 -d 6 -p tcp -e 1040 -c 0 -i 19 -a 0 -x {2.0 3.0 -1 ------- null}
+ -t 11.30046896 -s 2 -d 6 -p tcp -e 1040 -c 0 -i 23 -a 0 -x {2.0 3.0 13 ------- null}
+ -t 11.30046896 -s 2 -d 6 -p tcp -e 1040 -c 0 -i 24 -a 0 -x {2.0 3.0 14 ------- null}
- -t 11.30046896 -s 2 -d 6 -p tcp -e 1040 -c 0 -i 20 -a 0 -x {2.0 3.0 10 ------- null}
h -t 11.30046896 -s 2 -d 6 -p tcp -e 1040 -c 0 -i 20 -a 0 -x {2.0 3.0 -1 ------- null}
- -t 11.30055424 -s 2 -d 6 -p tcp -e 1040 -c 0 -i 21 -a 0 -x {2.0 3.0 11 ------- null}
h -t 11.30055424 -s 2 -d 6 -p tcp -e 1040 -c 0 -i 21 -a 0 -x {2.0 3.0 -1 ------- null}
- -t 11.30063952 -s 2 -d 6 -p tcp -e 1040 -c 0 -i 22 -a 0 -x {2.0 3.0 12 ------- null}
h -t 11.30063952 -s 2 -d 6 -p tcp -e 1040 -c 0 -i 22 -a 0 -x {2.0 3.0 -1 ------- null}
- -t 11.3007248 -s 2 -d 6 -p tcp -e 1040 -c 0 -i 23 -a 0 -x {2.0 3.0 13 ------- null}
h -t 11.3007248 -s 2 -d 6 -p tcp -e 1040 -c 0 -i 23 -a 0 -x {2.0 3.0 -1 ------- null}
- -t 11.30081008 -s 2 -d 6 -p tcp -e 1040 -c 0 -i 24 -a 0 -x {2.0 3.0 14 ------- null}
h -t 11.30081008 -s 2 -d 6 -p tcp -e 1040 -c 0 -i 24 -a 0 -x {2.0 3.0 -1 ------- null}
r -t 11.40030144 -s 6 -d 3 -p tcp -e 1040 -c 0 -i 17 -a 0 -x {2.0 3.0 7 ------- null}
h -t 11.40030144 -s 3 -d 6 -p ack -e 40 -c 0 -i 25 -a 0 -x {3.0 2.0 7 ------- null}
r -t 11.40038672 -s 6 -d 3 -p tcp -e 1040 -c 0 -i 18 -a 0 -x {2.0 3.0 8 ------- null}
h -t 11.40038672 -s 3 -d 6 -p ack -e 40 -c 0 -i 26 -a 0 -x {3.0 2.0 8 ------- null}
r -t 11.400472 -s 6 -d 3 -p tcp -e 1040 -c 0 -i 19 -a 0 -x {2.0 3.0 9 ------- null}
h -t 11.400472 -s 3 -d 6 -p ack -e 40 -c 0 -i 27 -a 0 -x {3.0 2.0 9 ------- null}
r -t 11.40055728 -s 6 -d 3 -p tcp -e 1040 -c 0 -i 20 -a 0 -x {2.0 3.0 10 ------- null}
h -t 11.40055728 -s 3 -d 6 -p ack -e 40 -c 0 -i 28 -a 0 -x {3.0 2.0 10 ------- null}
r -t 11.40064256 -s 6 -d 3 -p tcp -e 1040 -c 0 -i 21 -a 0 -x {2.0 3.0 11 ------- null}
h -t 11.40064256 -s 3 -d 6 -p ack -e 40 -c 0 -i 29 -a 0 -x {3.0 2.0 11 ------- null}
r -t 11.40072784 -s 6 -d 3 -p tcp -e 1040 -c 0 -i 22 -a 0 -x {2.0 3.0 12 ------- null}
h -t 11.40072784 -s 3 -d 6 -p ack -e 40 -c 0 -i 30 -a 0 -x {3.0 2.0 12 ------- null}
r -t 11.40081312 -s 6 -d 3 -p tcp -e 1040 -c 0 -i 23 -a 0 -x {2.0 3.0 13 ------- null}
h -t 11.40081312 -s 3 -d 6 -p ack -e 40 -c 0 -i 31 -a 0 -x {3.0 2.0 13 ------- null}
r -t 11.4008984 -s 6 -d 3 -p tcp -e 1040 -c 0 -i 24 -a 0 -x {2.0 3.0 14 ------- null}
h -t 11.4008984 -s 3 -d 6 -p ack -e 40 -c 0 -i 32 -a 0 -x {3.0 2.0 14 ------- null}
+ -t 11.50030144 -s 3 -d 6 -p ack -e 40 -c 0 -i 25 -a 0 -x {3.0 2.0 7 ------- null}
- -t 11.50030144 -s 3 -d 6 -p ack -e 40 -c 0 -i 25 -a 0 -x {3.0 2.0 7 ------- null}
h -t 11.50030144 -s 3 -d 6 -p ack -e 40 -c 0 -i 25 -a 0 -x {3.0 2.0 -1 ------- null}
+ -t 11.50038672 -s 3 -d 6 -p ack -e 40 -c 0 -i 26 -a 0 -x {3.0 2.0 8 ------- null}
- -t 11.50038672 -s 3 -d 6 -p ack -e 40 -c 0 -i 26 -a 0 -x {3.0 2.0 8 ------- null}
h -t 11.50038672 -s 3 -d 6 -p ack -e 40 -c 0 -i 26 -a 0 -x {3.0 2.0 -1 ------- null}
+ -t 11.500472 -s 3 -d 6 -p ack -e 40 -c 0 -i 27 -a 0 -x {3.0 2.0 9 ------- null}
- -t 11.500472 -s 3 -d 6 -p ack -e 40 -c 0 -i 27 -a 0 -x {3.0 2.0 9 ------- null}
h -t 11.500472 -s 3 -d 6 -p ack -e 40 -c 0 -i 27 -a 0 -x {3.0 2.0 -1 ------- null}
+ -t 11.50055728 -s 3 -d 6 -p ack -e 40 -c 0 -i 28 -a 0 -x {3.0 2.0 10 ------- null}
- -t 11.50055728 -s 3 -d 6 -p ack -e 40 -c 0 -i 28 -a 0 -x {3.0 2.0 10 ------- null}
h -t 11.50055728 -s 3 -d 6 -p ack -e 40 -c 0 -i 28 -a 0 -x {3.0 2.0 -1 ------- null}
+ -t 11.50064256 -s 3 -d 6 -p ack -e 40 -c 0 -i 29 -a 0 -x {3.0 2.0 11 ------- null}
- -t 11.50064256 -s 3 -d 6 -p ack -e 40 -c 0 -i 29 -a 0 -x {3.0 2.0 11 ------- null}
h -t 11.50064256 -s 3 -d 6 -p ack -e 40 -c 0 -i 29 -a 0 -x {3.0 2.0 -1 ------- null}
+ -t 11.50072784 -s 3 -d 6 -p ack -e 40 -c 0 -i 30 -a 0 -x {3.0 2.0 12 ------- null}
- -t 11.50072784 -s 3 -d 6 -p ack -e 40 -c 0 -i 30 -a 0 -x {3.0 2.0 12 ------- null}
h -t 11.50072784 -s 3 -d 6 -p ack -e 40 -c 0 -i 30 -a 0 -x {3.0 2.0 -1 ------- null}
+ -t 11.50081312 -s 3 -d 6 -p ack -e 40 -c 0 -i 31 -a 0 -x {3.0 2.0 13 ------- null}
- -t 11.50081312 -s 3 -d 6 -p ack -e 40 -c 0 -i 31 -a 0 -x {3.0 2.0 13 ------- null}
h -t 11.50081312 -s 3 -d 6 -p ack -e 40 -c 0 -i 31 -a 0 -x {3.0 2.0 -1 ------- null}
+ -t 11.5008984 -s 3 -d 6 -p ack -e 40 -c 0 -i 32 -a 0 -x {3.0 2.0 14 ------- null}
- -t 11.5008984 -s 3 -d 6 -p ack -e 40 -c 0 -i 32 -a 0 -x {3.0 2.0 14 ------- null}
h -t 11.5008984 -s 3 -d 6 -p ack -e 40 -c 0 -i 32 -a 0 -x {3.0 2.0 -1 ------- null}
r -t 11.60031056 -s 6 -d 2 -p ack -e 40 -c 0 -i 25 -a 0 -x {3.0 2.0 7 ------- null}
h -t 11.60031056 -s 2 -d 6 -p tcp -e 1040 -c 0 -i 33 -a 0 -x {2.0 3.0 15 ------- null}
h -t 11.60031056 -s 2 -d 6 -p tcp -e 1040 -c 0 -i 34 -a 0 -x {2.0 3.0 16 ------- null}
r -t 11.60039584 -s 6 -d 2 -p ack -e 40 -c 0 -i 26 -a 0 -x {3.0 2.0 8 ------- null}
h -t 11.60039584 -s 2 -d 6 -p tcp -e 1040 -c 0 -i 35 -a 0 -x {2.0 3.0 17 ------- null}
h -t 11.60039584 -s 2 -d 6 -p tcp -e 1040 -c 0 -i 36 -a 0 -x {2.0 3.0 18 ------- null}
r -t 11.60048112 -s 6 -d 2 -p ack -e 40 -c 0 -i 27 -a 0 -x {3.0 2.0 9 ------- null}
h -t 11.60048112 -s 2 -d 6 -p tcp -e 1040 -c 0 -i 37 -a 0 -x {2.0 3.0 19 ------- null}
h -t 11.60048112 -s 2 -d 6 -p tcp -e 1040 -c 0 -i 38 -a 0 -x {2.0 3.0 20 ------- null}
r -t 11.6005664 -s 6 -d 2 -p ack -e 40 -c 0 -i 28 -a 0 -x {3.0 2.0 10 ------- null}
h -t 11.6005664 -s 2 -d 6 -p tcp -e 1040 -c 0 -i 39 -a 0 -x {2.0 3.0 21 ------- null}
h -t 11.6005664 -s 2 -d 6 -p tcp -e 1040 -c 0 -i 40 -a 0 -x {2.0 3.0 22 ------- null}
r -t 11.60065168 -s 6 -d 2 -p ack -e 40 -c 0 -i 29 -a 0 -x {3.0 2.0 11 ------- null}
h -t 11.60065168 -s 2 -d 6 -p tcp -e 1040 -c 0 -i 41 -a 0 -x {2.0 3.0 23 ------- null}
h -t 11.60065168 -s 2 -d 6 -p tcp -e 1040 -c 0 -i 42 -a 0 -x {2.0 3.0 24 ------- null}
r -t 11.60073696 -s 6 -d 2 -p ack -e 40 -c 0 -i 30 -a 0 -x {3.0 2.0 12 ------- null}
h -t 11.60073696 -s 2 -d 6 -p tcp -e 1040 -c 0 -i 43 -a 0 -x {2.0 3.0 25 ------- null}
h -t 11.60073696 -s 2 -d 6 -p tcp -e 1040 -c 0 -i 44 -a 0 -x {2.0 3.0 26 ------- null}
r -t 11.60082224 -s 6 -d 2 -p ack -e 40 -c 0 -i 31 -a 0 -x {3.0 2.0 13 ------- null}
h -t 11.60082224 -s 2 -d 6 -p tcp -e 1040 -c 0 -i 45 -a 0 -x {2.0 3.0 27 ------- null}
h -t 11.60082224 -s 2 -d 6 -p tcp -e 1040 -c 0 -i 46 -a 0 -x {2.0 3.0 28 ------- null}
r -t 11.60090752 -s 6 -d 2 -p ack -e 40 -c 0 -i 32 -a 0 -x {3.0 2.0 14 ------- null}
h -t 11.60090752 -s 2 -d 6 -p tcp -e 1040 -c 0 -i 47 -a 0 -x {2.0 3.0 29 ------- null}
h -t 11.60090752 -s 2 -d 6 -p tcp -e 1040 -c 0 -i 48 -a 0 -x {2.0 3.0 30 ------- null}
+ -t 11.70031056 -s 2 -d 6 -p tcp -e 1040 -c 0 -i 33 -a 0 -x {2.0 3.0 15 ------- null}
- -t 11.70031056 -s 2 -d 6 -p tcp -e 1040 -c 0 -i 33 -a 0 -x {2.0 3.0 15 ------- null}
h -t 11.70031056 -s 2 -d 6 -p tcp -e 1040 -c 0 -i 33 -a 0 -x {2.0 3.0 -1 ------- null}
+ -t 11.70031056 -s 2 -d 6 -p tcp -e 1040 -c 0 -i 34 -a 0 -x {2.0 3.0 16 ------- null}
+ -t 11.70039584 -s 2 -d 6 -p tcp -e 1040 -c 0 -i 35 -a 0 -x {2.0 3.0 17 ------- null}
+ -t 11.70039584 -s 2 -d 6 -p tcp -e 1040 -c 0 -i 36 -a 0 -x {2.0 3.0 18 ------- null}
- -t 11.70039584 -s 2 -d 6 -p tcp -e 1040 -c 0 -i 34 -a 0 -x {2.0 3.0 16 ------- null}
h -t 11.70039584 -s 2 -d 6 -p tcp -e 1040 -c 0 -i 34 -a 0 -x {2.0 3.0 -1 ------- null}
+ -t 11.70048112 -s 2 -d 6 -p tcp -e 1040 -c 0 -i 37 -a 0 -x {2.0 3.0 19 ------- null}
+ -t 11.70048112 -s 2 -d 6 -p tcp -e 1040 -c 0 -i 38 -a 0 -x {2.0 3.0 20 ------- null}
- -t 11.70048112 -s 2 -d 6 -p tcp -e 1040 -c 0 -i 35 -a 0 -x {2.0 3.0 17 ------- null}
h -t 11.70048112 -s 2 -d 6 -p tcp -e 1040 -c 0 -i 35 -a 0 -x {2.0 3.0 -1 ------- null}
+ -t 11.7005664 -s 2 -d 6 -p tcp -e 1040 -c 0 -i 39 -a 0 -x {2.0 3.0 21 ------- null}
+ -t 11.7005664 -s 2 -d 6 -p tcp -e 1040 -c 0 -i 40 -a 0 -x {2.0 3.0 22 ------- null}
- -t 11.7005664 -s 2 -d 6 -p tcp -e 1040 -c 0 -i 36 -a 0 -x {2.0 3.0 18 ------- null}
h -t 11.7005664 -s 2 -d 6 -p tcp -e 1040 -c 0 -i 36 -a 0 -x {2.0 3.0 -1 ------- null}
+ -t 11.70065168 -s 2 -d 6 -p tcp -e 1040 -c 0 -i 41 -a 0 -x {2.0 3.0 23 ------- null}
+ -t 11.70065168 -s 2 -d 6 -p tcp -e 1040 -c 0 -i 42 -a 0 -x {2.0 3.0 24 ------- null}
- -t 11.70065168 -s 2 -d 6 -p tcp -e 1040 -c 0 -i 37 -a 0 -x {2.0 3.0 19 ------- null}
h -t 11.70065168 -s 2 -d 6 -p tcp -e 1040 -c 0 -i 37 -a 0 -x {2.0 3.0 -1 ------- null}
+ -t 11.70073696 -s 2 -d 6 -p tcp -e 1040 -c 0 -i 43 -a 0 -x {2.0 3.0 25 ------- null}
+ -t 11.70073696 -s 2 -d 6 -p tcp -e 1040 -c 0 -i 44 -a 0 -x {2.0 3.0 26 ------- null}
- -t 11.70073696 -s 2 -d 6 -p tcp -e 1040 -c 0 -i 38 -a 0 -x {2.0 3.0 20 ------- null}
h -t 11.70073696 -s 2 -d 6 -p tcp -e 1040 -c 0 -i 38 -a 0 -x {2.0 3.0 -1 ------- null}
+ -t 11.70082224 -s 2 -d 6 -p tcp -e 1040 -c 0 -i 45 -a 0 -x {2.0 3.0 27 ------- null}
+ -t 11.70082224 -s 2 -d 6 -p tcp -e 1040 -c 0 -i 46 -a 0 -x {2.0 3.0 28 ------- null}
- -t 11.70082224 -s 2 -d 6 -p tcp -e 1040 -c 0 -i 39 -a 0 -x {2.0 3.0 21 ------- null}
h -t 11.70082224 -s 2 -d 6 -p tcp -e 1040 -c 0 -i 39 -a 0 -x {2.0 3.0 -1 ------- null}
+ -t 11.70090752 -s 2 -d 6 -p tcp -e 1040 -c 0 -i 47 -a 0 -x {2.0 3.0 29 ------- null}
+ -t 11.70090752 -s 2 -d 6 -p tcp -e 1040 -c 0 -i 48 -a 0 -x {2.0 3.0 30 ------- null}
- -t 11.70090752 -s 2 -d 6 -p tcp -e 1040 -c 0 -i 40 -a 0 -x {2.0 3.0 22 ------- null}
h -t 11.70090752 -s 2 -d 6 -p tcp -e 1040 -c 0 -i 40 -a 0 -x {2.0 3.0 -1 ------- null}
- -t 11.7009928 -s 2 -d 6 -p tcp -e 1040 -c 0 -i 41 -a 0 -x {2.0 3.0 23 ------- null}
h -t 11.7009928 -s 2 -d 6 -p tcp -e 1040 -c 0 -i 41 -a 0 -x {2.0 3.0 -1 ------- null}
- -t 11.70107808 -s 2 -d 6 -p tcp -e 1040 -c 0 -i 42 -a 0 -x {2.0 3.0 24 ------- null}
h -t 11.70107808 -s 2 -d 6 -p tcp -e 1040 -c 0 -i 42 -a 0 -x {2.0 3.0 -1 ------- null}
- -t 11.70116336 -s 2 -d 6 -p tcp -e 1040 -c 0 -i 43 -a 0 -x {2.0 3.0 25 ------- null}
h -t 11.70116336 -s 2 -d 6 -p tcp -e 1040 -c 0 -i 43 -a 0 -x {2.0 3.0 -1 ------- null}
- -t 11.70124864 -s 2 -d 6 -p tcp -e 1040 -c 0 -i 44 -a 0 -x {2.0 3.0 26 ------- null}
h -t 11.70124864 -s 2 -d 6 -p tcp -e 1040 -c 0 -i 44 -a 0 -x {2.0 3.0 -1 ------- null}
- -t 11.70133392 -s 2 -d 6 -p tcp -e 1040 -c 0 -i 45 -a 0 -x {2.0 3.0 27 ------- null}
h -t 11.70133392 -s 2 -d 6 -p tcp -e 1040 -c 0 -i 45 -a 0 -x {2.0 3.0 -1 ------- null}
- -t 11.7014192 -s 2 -d 6 -p tcp -e 1040 -c 0 -i 46 -a 0 -x {2.0 3.0 28 ------- null}
h -t 11.7014192 -s 2 -d 6 -p tcp -e 1040 -c 0 -i 46 -a 0 -x {2.0 3.0 -1 ------- null}
- -t 11.70150448 -s 2 -d 6 -p tcp -e 1040 -c 0 -i 47 -a 0 -x {2.0 3.0 29 ------- null}
h -t 11.70150448 -s 2 -d 6 -p tcp -e 1040 -c 0 -i 47 -a 0 -x {2.0 3.0 -1 ------- null}
- -t 11.70158976 -s 2 -d 6 -p tcp -e 1040 -c 0 -i 48 -a 0 -x {2.0 3.0 30 ------- null}
h -t 11.70158976 -s 2 -d 6 -p tcp -e 1040 -c 0 -i 48 -a 0 -x {2.0 3.0 -1 ------- null}
r -t 11.80039888 -s 6 -d 3 -p tcp -e 1040 -c 0 -i 33 -a 0 -x {2.0 3.0 15 ------- null}
h -t 11.80039888 -s 3 -d 6 -p ack -e 40 -c 0 -i 49 -a 0 -x {3.0 2.0 15 ------- null}
r -t 11.80048416 -s 6 -d 3 -p tcp -e 1040 -c 0 -i 34 -a 0 -x {2.0 3.0 16 ------- null}
h -t 11.80048416 -s 3 -d 6 -p ack -e 40 -c 0 -i 50 -a 0 -x {3.0 2.0 16 ------- null}
r -t 11.80056944 -s 6 -d 3 -p tcp -e 1040 -c 0 -i 35 -a 0 -x {2.0 3.0 17 ------- null}
h -t 11.80056944 -s 3 -d 6 -p ack -e 40 -c 0 -i 51 -a 0 -x {3.0 2.0 17 ------- null}
r -t 11.80065472 -s 6 -d 3 -p tcp -e 1040 -c 0 -i 36 -a 0 -x {2.0 3.0 18 ------- null}
h -t 11.80065472 -s 3 -d 6 -p ack -e 40 -c 0 -i 52 -a 0 -x {3.0 2.0 18 ------- null}
r -t 11.80074 -s 6 -d 3 -p tcp -e 1040 -c 0 -i 37 -a 0 -x {2.0 3.0 19 ------- null}
h -t 11.80074 -s 3 -d 6 -p ack -e 40 -c 0 -i 53 -a 0 -x {3.0 2.0 19 ------- null}
r -t 11.80082528 -s 6 -d 3 -p tcp -e 1040 -c 0 -i 38 -a 0 -x {2.0 3.0 20 ------- null}
h -t 11.80082528 -s 3 -d 6 -p ack -e 40 -c 0 -i 54 -a 0 -x {3.0 2.0 20 ------- null}
r -t 11.80091056 -s 6 -d 3 -p tcp -e 1040 -c 0 -i 39 -a 0 -x {2.0 3.0 21 ------- null}
h -t 11.80091056 -s 3 -d 6 -p ack -e 40 -c 0 -i 55 -a 0 -x {3.0 2.0 21 ------- null}
r -t 11.80099584 -s 6 -d 3 -p tcp -e 1040 -c 0 -i 40 -a 0 -x {2.0 3.0 22 ------- null}
h -t 11.80099584 -s 3 -d 6 -p ack -e 40 -c 0 -i 56 -a 0 -x {3.0 2.0 22 ------- null}
r -t 11.80108112 -s 6 -d 3 -p tcp -e 1040 -c 0 -i 41 -a 0 -x {2.0 3.0 23 ------- null}
h -t 11.80108112 -s 3 -d 6 -p ack -e 40 -c 0 -i 57 -a 0 -x {3.0 2.0 23 ------- null}
r -t 11.8011664 -s 6 -d 3 -p tcp -e 1040 -c 0 -i 42 -a 0 -x {2.0 3.0 24 ------- null}
h -t 11.8011664 -s 3 -d 6 -p ack -e 40 -c 0 -i 58 -a 0 -x {3.0 2.0 24 ------- null}
r -t 11.80125168 -s 6 -d 3 -p tcp -e 1040 -c 0 -i 43 -a 0 -x {2.0 3.0 25 ------- null}
h -t 11.80125168 -s 3 -d 6 -p ack -e 40 -c 0 -i 59 -a 0 -x {3.0 2.0 25 ------- null}
r -t 11.80133696 -s 6 -d 3 -p tcp -e 1040 -c 0 -i 44 -a 0 -x {2.0 3.0 26 ------- null}
h -t 11.80133696 -s 3 -d 6 -p ack -e 40 -c 0 -i 60 -a 0 -x {3.0 2.0 26 ------- null}
r -t 11.80142224 -s 6 -d 3 -p tcp -e 1040 -c 0 -i 45 -a 0 -x {2.0 3.0 27 ------- null}
h -t 11.80142224 -s 3 -d 6 -p ack -e 40 -c 0 -i 61 -a 0 -x {3.0 2.0 27 ------- null}
r -t 11.80150752 -s 6 -d 3 -p tcp -e 1040 -c 0 -i 46 -a 0 -x {2.0 3.0 28 ------- null}
h -t 11.80150752 -s 3 -d 6 -p ack -e 40 -c 0 -i 62 -a 0 -x {3.0 2.0 28 ------- null}
r -t 11.8015928 -s 6 -d 3 -p tcp -e 1040 -c 0 -i 47 -a 0 -x {2.0 3.0 29 ------- null}
h -t 11.8015928 -s 3 -d 6 -p ack -e 40 -c 0 -i 63 -a 0 -x {3.0 2.0 29 ------- null}
r -t 11.80167808 -s 6 -d 3 -p tcp -e 1040 -c 0 -i 48 -a 0 -x {2.0 3.0 30 ------- null}
h -t 11.80167808 -s 3 -d 6 -p ack -e 40 -c 0 -i 64 -a 0 -x {3.0 2.0 30 ------- null}
+ -t 11.90039888 -s 3 -d 6 -p ack -e 40 -c 0 -i 49 -a 0 -x {3.0 2.0 15 ------- null}
- -t 11.90039888 -s 3 -d 6 -p ack -e 40 -c 0 -i 49 -a 0 -x {3.0 2.0 15 ------- null}
h -t 11.90039888 -s 3 -d 6 -p ack -e 40 -c 0 -i 49 -a 0 -x {3.0 2.0 -1 ------- null}
+ -t 11.90048416 -s 3 -d 6 -p ack -e 40 -c 0 -i 50 -a 0 -x {3.0 2.0 16 ------- null}
- -t 11.90048416 -s 3 -d 6 -p ack -e 40 -c 0 -i 50 -a 0 -x {3.0 2.0 16 ------- null}
h -t 11.90048416 -s 3 -d 6 -p ack -e 40 -c 0 -i 50 -a 0 -x {3.0 2.0 -1 ------- null}
+ -t 11.90056944 -s 3 -d 6 -p ack -e 40 -c 0 -i 51 -a 0 -x {3.0 2.0 17 ------- null}
- -t 11.90056944 -s 3 -d 6 -p ack -e 40 -c 0 -i 51 -a 0 -x {3.0 2.0 17 ------- null}
h -t 11.90056944 -s 3 -d 6 -p ack -e 40 -c 0 -i 51 -a 0 -x {3.0 2.0 -1 ------- null}
+ -t 11.90065472 -s 3 -d 6 -p ack -e 40 -c 0 -i 52 -a 0 -x {3.0 2.0 18 ------- null}
- -t 11.90065472 -s 3 -d 6 -p ack -e 40 -c 0 -i 52 -a 0 -x {3.0 2.0 18 ------- null}
h -t 11.90065472 -s 3 -d 6 -p ack -e 40 -c 0 -i 52 -a 0 -x {3.0 2.0 -1 ------- null}
+ -t 11.90074 -s 3 -d 6 -p ack -e 40 -c 0 -i 53 -a 0 -x {3.0 2.0 19 ------- null}
- -t 11.90074 -s 3 -d 6 -p ack -e 40 -c 0 -i 53 -a 0 -x {3.0 2.0 19 ------- null}
h -t 11.90074 -s 3 -d 6 -p ack -e 40 -c 0 -i 53 -a 0 -x {3.0 2.0 -1 ------- null}
+ -t 11.90082528 -s 3 -d 6 -p ack -e 40 -c 0 -i 54 -a 0 -x {3.0 2.0 20 ------- null}
- -t 11.90082528 -s 3 -d 6 -p ack -e 40 -c 0 -i 54 -a 0 -x {3.0 2.0 20 ------- null}
h -t 11.90082528 -s 3 -d 6 -p ack -e 40 -c 0 -i 54 -a 0 -x {3.0 2.0 -1 ------- null}
+ -t 11.90091056 -s 3 -d 6 -p ack -e 40 -c 0 -i 55 -a 0 -x {3.0 2.0 21 ------- null}
- -t 11.90091056 -s 3 -d 6 -p ack -e 40 -c 0 -i 55 -a 0 -x {3.0 2.0 21 ------- null}
h -t 11.90091056 -s 3 -d 6 -p ack -e 40 -c 0 -i 55 -a 0 -x {3.0 2.0 -1 ------- null}
+ -t 11.90099584 -s 3 -d 6 -p ack -e 40 -c 0 -i 56 -a 0 -x {3.0 2.0 22 ------- null}
- -t 11.90099584 -s 3 -d 6 -p ack -e 40 -c 0 -i 56 -a 0 -x {3.0 2.0 22 ------- null}
h -t 11.90099584 -s 3 -d 6 -p ack -e 40 -c 0 -i 56 -a 0 -x {3.0 2.0 -1 ------- null}
+ -t 11.90108112 -s 3 -d 6 -p ack -e 40 -c 0 -i 57 -a 0 -x {3.0 2.0 23 ------- null}
- -t 11.90108112 -s 3 -d 6 -p ack -e 40 -c 0 -i 57 -a 0 -x {3.0 2.0 23 ------- null}
h -t 11.90108112 -s 3 -d 6 -p ack -e 40 -c 0 -i 57 -a 0 -x {3.0 2.0 -1 ------- null}
+ -t 11.9011664 -s 3 -d 6 -p ack -e 40 -c 0 -i 58 -a 0 -x {3.0 2.0 24 ------- null}
- -t 11.9011664 -s 3 -d 6 -p ack -e 40 -c 0 -i 58 -a 0 -x {3.0 2.0 24 ------- null}
h -t 11.9011664 -s 3 -d 6 -p ack -e 40 -c 0 -i 58 -a 0 -x {3.0 2.0 -1 ------- null}
+ -t 11.90125168 -s 3 -d 6 -p ack -e 40 -c 0 -i 59 -a 0 -x {3.0 2.0 25 ------- null}
- -t 11.90125168 -s 3 -d 6 -p ack -e 40 -c 0 -i 59 -a 0 -x {3.0 2.0 25 ------- null}
h -t 11.90125168 -s 3 -d 6 -p ack -e 40 -c 0 -i 59 -a 0 -x {3.0 2.0 -1 ------- null}
+ -t 11.90133696 -s 3 -d 6 -p ack -e 40 -c 0 -i 60 -a 0 -x {3.0 2.0 26 ------- null}
- -t 11.90133696 -s 3 -d 6 -p ack -e 40 -c 0 -i 60 -a 0 -x {3.0 2.0 26 ------- null}
h -t 11.90133696 -s 3 -d 6 -p ack -e 40 -c 0 -i 60 -a 0 -x {3.0 2.0 -1 ------- null}
+ -t 11.90142224 -s 3 -d 6 -p ack -e 40 -c 0 -i 61 -a 0 -x {3.0 2.0 27 ------- null}
- -t 11.90142224 -s 3 -d 6 -p ack -e 40 -c 0 -i 61 -a 0 -x {3.0 2.0 27 ------- null}
h -t 11.90142224 -s 3 -d 6 -p ack -e 40 -c 0 -i 61 -a 0 -x {3.0 2.0 -1 ------- null}
+ -t 11.90150752 -s 3 -d 6 -p ack -e 40 -c 0 -i 62 -a 0 -x {3.0 2.0 28 ------- null}
- -t 11.90150752 -s 3 -d 6 -p ack -e 40 -c 0 -i 62 -a 0 -x {3.0 2.0 28 ------- null}
h -t 11.90150752 -s 3 -d 6 -p ack -e 40 -c 0 -i 62 -a 0 -x {3.0 2.0 -1 ------- null}
+ -t 11.9015928 -s 3 -d 6 -p ack -e 40 -c 0 -i 63 -a 0 -x {3.0 2.0 29 ------- null}
- -t 11.9015928 -s 3 -d 6 -p ack -e 40 -c 0 -i 63 -a 0 -x {3.0 2.0 29 ------- null}
h -t 11.9015928 -s 3 -d 6 -p ack -e 40 -c 0 -i 63 -a 0 -x {3.0 2.0 -1 ------- null}
+ -t 11.90167808 -s 3 -d 6 -p ack -e 40 -c 0 -i 64 -a 0 -x {3.0 2.0 30 ------- null}
- -t 11.90167808 -s 3 -d 6 -p ack -e 40 -c 0 -i 64 -a 0 -x {3.0 2.0 30 ------- null}
h -t 11.90167808 -s 3 -d 6 -p ack -e 40 -c 0 -i 64 -a 0 -x {3.0 2.0 -1 ------- null}
r -t 12.000408 -s 6 -d 2 -p ack -e 40 -c 0 -i 49 -a 0 -x {3.0 2.0 15 ------- null}
h -t 12.000408 -s 2 -d 6 -p tcp -e 1040 -c 0 -i 65 -a 0 -x {2.0 3.0 31 ------- null}
h -t 12.000408 -s 2 -d 6 -p tcp -e 1040 -c 0 -i 66 -a 0 -x {2.0 3.0 32 ------- null}
r -t 12.00049328 -s 6 -d 2 -p ack -e 40 -c 0 -i 50 -a 0 -x {3.0 2.0 16 ------- null}
h -t 12.00049328 -s 2 -d 6 -p tcp -e 1040 -c 0 -i 67 -a 0 -x {2.0 3.0 33 ------- null}
h -t 12.00049328 -s 2 -d 6 -p tcp -e 1040 -c 0 -i 68 -a 0 -x {2.0 3.0 34 ------- null}
r -t 12.00057856 -s 6 -d 2 -p ack -e 40 -c 0 -i 51 -a 0 -x {3.0 2.0 17 ------- null}
h -t 12.00057856 -s 2 -d 6 -p tcp -e 1040 -c 0 -i 69 -a 0 -x {2.0 3.0 35 ------- null}
h -t 12.00057856 -s 2 -d 6 -p tcp -e 1040 -c 0 -i 70 -a 0 -x {2.0 3.0 36 ------- null}
r -t 12.00066384 -s 6 -d 2 -p ack -e 40 -c 0 -i 52 -a 0 -x {3.0 2.0 18 ------- null}
h -t 12.00066384 -s 2 -d 6 -p tcp -e 1040 -c 0 -i 71 -a 0 -x {2.0 3.0 37 ------- null}
h -t 12.00066384 -s 2 -d 6 -p tcp -e 1040 -c 0 -i 72 -a 0 -x {2.0 3.0 38 ------- null}
r -t 12.00074912 -s 6 -d 2 -p ack -e 40 -c 0 -i 53 -a 0 -x {3.0 2.0 19 ------- null}
h -t 12.00074912 -s 2 -d 6 -p tcp -e 1040 -c 0 -i 73 -a 0 -x {2.0 3.0 39 ------- null}
r -t 12.0008344 -s 6 -d 2 -p ack -e 40 -c 0 -i 54 -a 0 -x {3.0 2.0 20 ------- null}
h -t 12.0008344 -s 2 -d 6 -p tcp -e 1040 -c 0 -i 74 -a 0 -x {2.0 3.0 40 ------- null}
r -t 12.00091968 -s 6 -d 2 -p ack -e 40 -c 0 -i 55 -a 0 -x {3.0 2.0 21 ------- null}
h -t 12.00091968 -s 2 -d 6 -p tcp -e 1040 -c 0 -i 75 -a 0 -x {2.0 3.0 41 ------- null}
r -t 12.00100496 -s 6 -d 2 -p ack -e 40 -c 0 -i 56 -a 0 -x {3.0 2.0 22 ------- null}
h -t 12.00100496 -s 2 -d 6 -p tcp -e 1040 -c 0 -i 76 -a 0 -x {2.0 3.0 42 ------- null}
r -t 12.00109024 -s 6 -d 2 -p ack -e 40 -c 0 -i 57 -a 0 -x {3.0 2.0 23 ------- null}
h -t 12.00109024 -s 2 -d 6 -p tcp -e 1040 -c 0 -i 77 -a 0 -x {2.0 3.0 43 ------- null}
r -t 12.00117552 -s 6 -d 2 -p ack -e 40 -c 0 -i 58 -a 0 -x {3.0 2.0 24 ------- null}