h 0.1 0 6 tcp 40 ------- 0 0.0 5.0 0 0
+ 0.2 0 6 tcp 40 ------- 0 0.0 5.0 0 0
- 0.2 0 6 tcp 40 ------- 0 0.0 5.0 0 0
r 0.300009 6 4 tcp 40 ------- 0 0.0 5.0 0 0
+ 0.300009 4 5 tcp 40 ------- 0 0.0 5.0 0 0
- 0.300009 4 5 tcp 40 ------- 0 0.0 5.0 0 0
r 0.301329 4 5 tcp 40 ------- 0 0.0 5.0 0 0
h 3.1 0 6 tcp 40 ---A--- 0 0.0 5.0 0 1
+ 3.2 0 6 tcp 40 ---A--- 0 0.0 5.0 0 1
- 3.2 0 6 tcp 40 ---A--- 0 0.0 5.0 0 1
r 3.300009 6 4 tcp 40 ---A--- 0 0.0 5.0 0 1
+ 3.300009 4 5 tcp 40 ---A--- 0 0.0 5.0 0 1
- 3.300009 4 5 tcp 40 ---A--- 0 0.0 5.0 0 1
r 3.301329 4 5 tcp 40 ---A--- 0 0.0 5.0 0 1
h 9.1 0 6 tcp 40 ---A--- 0 0.0 5.0 0 2
+ 9.2 0 6 tcp 40 ---A--- 0 0.0 5.0 0 2
- 9.2 0 6 tcp 40 ---A--- 0 0.0 5.0 0 2
r 9.300009 6 4 tcp 40 ---A--- 0 0.0 5.0 0 2
+ 9.300009 4 5 tcp 40 ---A--- 0 0.0 5.0 0 2
- 9.300009 4 5 tcp 40 ---A--- 0 0.0 5.0 0 2
r 9.301329 4 5 tcp 40 ---A--- 0 0.0 5.0 0 2
h 10 2 6 tcp 40 ------- 0 2.0 3.0 0 3
+ 10.1 2 6 tcp 40 ------- 0 2.0 3.0 0 3
- 10.1 2 6 tcp 40 ------- 0 2.0 3.0 0 3
r 10.200009 6 3 tcp 40 ------- 0 2.0 3.0 0 3
h 10.200009 3 6 ack 40 ------- 0 3.0 2.0 0 4
+ 10.300009 3 6 ack 40 ------- 0 3.0 2.0 0 4
- 10.300009 3 6 ack 40 ------- 0 3.0 2.0 0 4
r 10.400018 6 2 ack 40 ------- 0 3.0 2.0 0 4
h 10.400018 2 6 tcp 1040 ------- 0 2.0 3.0 1 5
h 10.400018 2 6 tcp 1040 ------- 0 2.0 3.0 2 6
+ 10.500018 2 6 tcp 1040 ------- 0 2.0 3.0 1 5
- 10.500018 2 6 tcp 1040 ------- 0 2.0 3.0 1 5
+ 10.500018 2 6 tcp 1040 ------- 0 2.0 3.0 2 6
- 10.500104 2 6 tcp 1040 ------- 0 2.0 3.0 2 6
r 10.600107 6 3 tcp 1040 ------- 0 2.0 3.0 1 5
h 10.600107 3 6 ack 40 ------- 0 3.0 2.0 1 7
r 10.600192 6 3 tcp 1040 ------- 0 2.0 3.0 2 6
h 10.600192 3 6 ack 40 ------- 0 3.0 2.0 2 8
+ 10.700107 3 6 ack 40 ------- 0 3.0 2.0 1 7
- 10.700107 3 6 ack 40 ------- 0 3.0 2.0 1 7
+ 10.700192 3 6 ack 40 ------- 0 3.0 2.0 2 8
- 10.700192 3 6 ack 40 ------- 0 3.0 2.0 2 8
r 10.800116 6 2 ack 40 ------- 0 3.0 2.0 1 7
h 10.800116 2 6 tcp 1040 ------- 0 2.0 3.0 3 9
h 10.800116 2 6 tcp 1040 ------- 0 2.0 3.0 4 10
r 10.800201 6 2 ack 40 ------- 0 3.0 2.0 2 8
h 10.800201 2 6 tcp 1040 ------- 0 2.0 3.0 5 11
h 10.800201 2 6 tcp 1040 ------- 0 2.0 3.0 6 12
+ 10.900116 2 6 tcp 1040 ------- 0 2.0 3.0 3 9
- 10.900116 2 6 tcp 1040 ------- 0 2.0 3.0 3 9
+ 10.900116 2 6 tcp 1040 ------- 0 2.0 3.0 4 10
+ 10.900201 2 6 tcp 1040 ------- 0 2.0 3.0 5 11
+ 10.900201 2 6 tcp 1040 ------- 0 2.0 3.0 6 12
- 10.900201 2 6 tcp 1040 ------- 0 2.0 3.0 4 10
- 10.900286 2 6 tcp 1040 ------- 0 2.0 3.0 5 11
- 10.900372 2 6 tcp 1040 ------- 0 2.0 3.0 6 12
r 11.000204 6 3 tcp 1040 ------- 0 2.0 3.0 3 9
h 11.000204 3 6 ack 40 ------- 0 3.0 2.0 3 13
r 11.000289 6 3 tcp 1040 ------- 0 2.0 3.0 4 10
h 11.000289 3 6 ack 40 ------- 0 3.0 2.0 4 14
r 11.000375 6 3 tcp 1040 ------- 0 2.0 3.0 5 11
h 11.000375 3 6 ack 40 ------- 0 3.0 2.0 5 15
r 11.00046 6 3 tcp 1040 ------- 0 2.0 3.0 6 12
h 11.00046 3 6 ack 40 ------- 0 3.0 2.0 6 16
+ 11.100204 3 6 ack 40 ------- 0 3.0 2.0 3 13
- 11.100204 3 6 ack 40 ------- 0 3.0 2.0 3 13
+ 11.100289 3 6 ack 40 ------- 0 3.0 2.0 4 14
- 11.100289 3 6 ack 40 ------- 0 3.0 2.0 4 14
+ 11.100375 3 6 ack 40 ------- 0 3.0 2.0 5 15
- 11.100375 3 6 ack 40 ------- 0 3.0 2.0 5 15
+ 11.10046 3 6 ack 40 ------- 0 3.0 2.0 6 16
- 11.10046 3 6 ack 40 ------- 0 3.0 2.0 6 16
r 11.200213 6 2 ack 40 ------- 0 3.0 2.0 3 13
h 11.200213 2 6 tcp 1040 ------- 0 2.0 3.0 7 17
h 11.200213 2 6 tcp 1040 ------- 0 2.0 3.0 8 18
r 11.200298 6 2 ack 40 ------- 0 3.0 2.0 4 14
h 11.200298 2 6 tcp 1040 ------- 0 2.0 3.0 9 19
h 11.200298 2 6 tcp 1040 ------- 0 2.0 3.0 10 20
r 11.200384 6 2 ack 40 ------- 0 3.0 2.0 5 15
h 11.200384 2 6 tcp 1040 ------- 0 2.0 3.0 11 21
h 11.200384 2 6 tcp 1040 ------- 0 2.0 3.0 12 22
r 11.200469 6 2 ack 40 ------- 0 3.0 2.0 6 16
h 11.200469 2 6 tcp 1040 ------- 0 2.0 3.0 13 23
h 11.200469 2 6 tcp 1040 ------- 0 2.0 3.0 14 24
+ 11.300213 2 6 tcp 1040 ------- 0 2.0 3.0 7 17
- 11.300213 2 6 tcp 1040 ------- 0 2.0 3.0 7 17
+ 11.300213 2 6 tcp 1040 ------- 0 2.0 3.0 8 18
+ 11.300298 2 6 tcp 1040 ------- 0 2.0 3.0 9 19
+ 11.300298 2 6 tcp 1040 ------- 0 2.0 3.0 10 20
- 11.300298 2 6 tcp 1040 ------- 0 2.0 3.0 8 18
+ 11.300384 2 6 tcp 1040 ------- 0 2.0 3.0 11 21
+ 11.300384 2 6 tcp 1040 ------- 0 2.0 3.0 12 22
- 11.300384 2 6 tcp 1040 ------- 0 2.0 3.0 9 19
+ 11.300469 2 6 tcp 1040 ------- 0 2.0 3.0 13 23
+ 11.300469 2 6 tcp 1040 ------- 0 2.0 3.0 14 24
- 11.300469 2 6 tcp 1040 ------- 0 2.0 3.0 10 20
- 11.300554 2 6 tcp 1040 ------- 0 2.0 3.0 11 21
- 11.30064 2 6 tcp 1040 ------- 0 2.0 3.0 12 22
- 11.300725 2 6 tcp 1040 ------- 0 2.0 3.0 13 23
- 11.30081 2 6 tcp 1040 ------- 0 2.0 3.0 14 24
r 11.400301 6 3 tcp 1040 ------- 0 2.0 3.0 7 17
h 11.400301 3 6 ack 40 ------- 0 3.0 2.0 7 25
r 11.400387 6 3 tcp 1040 ------- 0 2.0 3.0 8 18
h 11.400387 3 6 ack 40 ------- 0 3.0 2.0 8 26
r 11.400472 6 3 tcp 1040 ------- 0 2.0 3.0 9 19
h 11.400472 3 6 ack 40 ------- 0 3.0 2.0 9 27
r 11.400557 6 3 tcp 1040 ------- 0 2.0 3.0 10 20
h 11.400557 3 6 ack 40 ------- 0 3.0 2.0 10 28
r 11.400643 6 3 tcp 1040 ------- 0 2.0 3.0 11 21
h 11.400643 3 6 ack 40 ------- 0 3.0 2.0 11 29
r 11.400728 6 3 tcp 1040 ------- 0 2.0 3.0 12 22
h 11.400728 3 6 ack 40 ------- 0 3.0 2.0 12 30
r 11.400813 6 3 tcp 1040 ------- 0 2.0 3.0 13 23
h 11.400813 3 6 ack 40 ------- 0 3.0 2.0 13 31
r 11.400898 6 3 tcp 1040 ------- 0 2.0 3.0 14 24
h 11.400898 3 6 ack 40 ------- 0 3.0 2.0 14 32
+ 11.500301 3 6 ack 40 ------- 0 3.0 2.0 7 25
- 11.500301 3 6 ack 40 ------- 0 3.0 2.0 7 25
+ 11.500387 3 6 ack 40 ------- 0 3.0 2.0 8 26
- 11.500387 3 6 ack 40 ------- 0 3.0 2.0 8 26
+ 11.500472 3 6 ack 40 ------- 0 3.0 2.0 9 27
- 11.500472 3 6 ack 40 ------- 0 3.0 2.0 9 27
+ 11.500557 3 6 ack 40 ------- 0 3.0 2.0 10 28
- 11.500557 3 6 ack 40 ------- 0 3.0 2.0 10 28
+ 11.500643 3 6 ack 40 ------- 0 3.0 2.0 11 29
- 11.500643 3 6 ack 40 ------- 0 3.0 2.0 11 29
+ 11.500728 3 6 ack 40 ------- 0 3.0 2.0 12 30
- 11.500728 3 6 ack 40 ------- 0 3.0 2.0 12 30
+ 11.500813 3 6 ack 40 ------- 0 3.0 2.0 13 31
- 11.500813 3 6 ack 40 ------- 0 3.0 2.0 13 31
+ 11.500898 3 6 ack 40 ------- 0 3.0 2.0 14 32
- 11.500898 3 6 ack 40 ------- 0 3.0 2.0 14 32
r 11.600311 6 2 ack 40 ------- 0 3.0 2.0 7 25
h 11.600311 2 6 tcp 1040 ------- 0 2.0 3.0 15 33
h 11.600311 2 6 tcp 1040 ------- 0 2.0 3.0 16 34
r 11.600396 6 2 ack 40 ------- 0 3.0 2.0 8 26
h 11.600396 2 6 tcp 1040 ------- 0 2.0 3.0 17 35
h 11.600396 2 6 tcp 1040 ------- 0 2.0 3.0 18 36
r 11.600481 6 2 ack 40 ------- 0 3.0 2.0 9 27
h 11.600481 2 6 tcp 1040 ------- 0 2.0 3.0 19 37
h 11.600481 2 6 tcp 1040 ------- 0 2.0 3.0 20 38
r 11.600566 6 2 ack 40 ------- 0 3.0 2.0 10 28
h 11.600566 2 6 tcp 1040 ------- 0 2.0 3.0 21 39
h 11.600566 2 6 tcp 1040 ------- 0 2.0 3.0 22 40
r 11.600652 6 2 ack 40 ------- 0 3.0 2.0 11 29
h 11.600652 2 6 tcp 1040 ------- 0 2.0 3.0 23 41
h 11.600652 2 6 tcp 1040 ------- 0 2.0 3.0 24 42
r 11.600737 6 2 ack 40 ------- 0 3.0 2.0 12 30
h 11.600737 2 6 tcp 1040 ------- 0 2.0 3.0 25 43
h 11.600737 2 6 tcp 1040 ------- 0 2.0 3.0 26 44
r 11.600822 6 2 ack 40 ------- 0 3.0 2.0 13 31
h 11.600822 2 6 tcp 1040 ------- 0 2.0 3.0 27 45
h 11.600822 2 6 tcp 1040 ------- 0 2.0 3.0 28 46
r 11.600908 6 2 ack 40 ------- 0 3.0 2.0 14 32
h 11.600908 2 6 tcp 1040 ------- 0 2.0 3.0 29 47
h 11.600908 2 6 tcp 1040 ------- 0 2.0 3.0 30 48
+ 11.700311 2 6 tcp 1040 ------- 0 2.0 3.0 15 33
- 11.700311 2 6 tcp 1040 ------- 0 2.0 3.0 15 33
+ 11.700311 2 6 tcp 1040 ------- 0 2.0 3.0 16 34
+ 11.700396 2 6 tcp 1040 ------- 0 2.0 3.0 17 35
+ 11.700396 2 6 tcp 1040 ------- 0 2.0 3.0 18 36
- 11.700396 2 6 tcp 1040 ------- 0 2.0 3.0 16 34
+ 11.700481 2 6 tcp 1040 ------- 0 2.0 3.0 19 37
+ 11.700481 2 6 tcp 1040 ------- 0 2.0 3.0 20 38
- 11.700481 2 6 tcp 1040 ------- 0 2.0 3.0 17 35
+ 11.700566 2 6 tcp 1040 ------- 0 2.0 3.0 21 39
+ 11.700566 2 6 tcp 1040 ------- 0 2.0 3.0 22 40
- 11.700566 2 6 tcp 1040 ------- 0 2.0 3.0 18 36
+ 11.700652 2 6 tcp 1040 ------- 0 2.0 3.0 23 41
+ 11.700652 2 6 tcp 1040 ------- 0 2.0 3.0 24 42
- 11.700652 2 6 tcp 1040 ------- 0 2.0 3.0 19 37
+ 11.700737 2 6 tcp 1040 ------- 0 2.0 3.0 25 43
+ 11.700737 2 6 tcp 1040 ------- 0 2.0 3.0 26 44
- 11.700737 2 6 tcp 1040 ------- 0 2.0 3.0 20 38
+ 11.700822 2 6 tcp 1040 ------- 0 2.0 3.0 27 45
+ 11.700822 2 6 tcp 1040 ------- 0 2.0 3.0 28 46
- 11.700822 2 6 tcp 1040 ------- 0 2.0 3.0 21 39
+ 11.700908 2 6 tcp 1040 ------- 0 2.0 3.0 29 47
+ 11.700908 2 6 tcp 1040 ------- 0 2.0 3.0 30 48
- 11.700908 2 6 tcp 1040 ------- 0 2.0 3.0 22 40
- 11.700993 2 6 tcp 1040 ------- 0 2.0 3.0 23 41
- 11.701078 2 6 tcp 1040 ------- 0 2.0 3.0 24 42
- 11.701163 2 6 tcp 1040 ------- 0 2.0 3.0 25 43
- 11.701249 2 6 tcp 1040 ------- 0 2.0 3.0 26 44
- 11.701334 2 6 tcp 1040 ------- 0 2.0 3.0 27 45
- 11.701419 2 6 tcp 1040 ------- 0 2.0 3.0 28 46
- 11.701504 2 6 tcp 1040 ------- 0 2.0 3.0 29 47
- 11.70159 2 6 tcp 1040 ------- 0 2.0 3.0 30 48
r 11.800399 6 3 tcp 1040 ------- 0 2.0 3.0 15 33
h 11.800399 3 6 ack 40 ------- 0 3.0 2.0 15 49
r 11.800484 6 3 tcp 1040 ------- 0 2.0 3.0 16 34
h 11.800484 3 6 ack 40 ------- 0 3.0 2.0 16 50
r 11.800569 6 3 tcp 1040 ------- 0 2.0 3.0 17 35
h 11.800569 3 6 ack 40 ------- 0 3.0 2.0 17 51
r 11.800655 6 3 tcp 1040 ------- 0 2.0 3.0 18 36
h 11.800655 3 6 ack 40 ------- 0 3.0 2.0 18 52
r 11.80074 6 3 tcp 1040 ------- 0 2.0 3.0 19 37
h 11.80074 3 6 ack 40 ------- 0 3.0 2.0 19 53
r 11.800825 6 3 tcp 1040 ------- 0 2.0 3.0 20 38
h 11.800825 3 6 ack 40 ------- 0 3.0 2.0 20 54
r 11.800911 6 3 tcp 1040 ------- 0 2.0 3.0 21 39
h 11.800911 3 6 ack 40 ------- 0 3.0 2.0 21 55
r 11.800996 6 3 tcp 1040 ------- 0 2.0 3.0 22 40
h 11.800996 3 6 ack 40 ------- 0 3.0 2.0 22 56
r 11.801081 6 3 tcp 1040 ------- 0 2.0 3.0 23 41
h 11.801081 3 6 ack 40 ------- 0 3.0 2.0 23 57
r 11.801166 6 3 tcp 1040 ------- 0 2.0 3.0 24 42
h 11.801166 3 6 ack 40 ------- 0 3.0 2.0 24 58
r 11.801252 6 3 tcp 1040 ------- 0 2.0 3.0 25 43
h 11.801252 3 6 ack 40 ------- 0 3.0 2.0 25 59
r 11.801337 6 3 tcp 1040 ------- 0 2.0 3.0 26 44
h 11.801337 3 6 ack 40 ------- 0 3.0 2.0 26 60
r 11.801422 6 3 tcp 1040 ------- 0 2.0 3.0 27 45
h 11.801422 3 6 ack 40 ------- 0 3.0 2.0 27 61
r 11.801508 6 3 tcp 1040 ------- 0 2.0 3.0 28 46
h 11.801508 3 6 ack 40 ------- 0 3.0 2.0 28 62
r 11.801593 6 3 tcp 1040 ------- 0 2.0 3.0 29 47
h 11.801593 3 6 ack 40 ------- 0 3.0 2.0 29 63
r 11.801678 6 3 tcp 1040 ------- 0 2.0 3.0 30 48
h 11.801678 3 6 ack 40 ------- 0 3.0 2.0 30 64
+ 11.900399 3 6 ack 40 ------- 0 3.0 2.0 15 49
- 11.900399 3 6 ack 40 ------- 0 3.0 2.0 15 49
+ 11.900484 3 6 ack 40 ------- 0 3.0 2.0 16 50
- 11.900484 3 6 ack 40 ------- 0 3.0 2.0 16 50
+ 11.900569 3 6 ack 40 ------- 0 3.0 2.0 17 51
- 11.900569 3 6 ack 40 ------- 0 3.0 2.0 17 51
+ 11.900655 3 6 ack 40 ------- 0 3.0 2.0 18 52
- 11.900655 3 6 ack 40 ------- 0 3.0 2.0 18 52
+ 11.90074 3 6 ack 40 ------- 0 3.0 2.0 19 53
- 11.90074 3 6 ack 40 ------- 0 3.0 2.0 19 53
+ 11.900825 3 6 ack 40 ------- 0 3.0 2.0 20 54
- 11.900825 3 6 ack 40 ------- 0 3.0 2.0 20 54
+ 11.900911 3 6 ack 40 ------- 0 3.0 2.0 21 55
- 11.900911 3 6 ack 40 ------- 0 3.0 2.0 21 55
+ 11.900996 3 6 ack 40 ------- 0 3.0 2.0 22 56
- 11.900996 3 6 ack 40 ------- 0 3.0 2.0 22 56
+ 11.901081 3 6 ack 40 ------- 0 3.0 2.0 23 57
- 11.901081 3 6 ack 40 ------- 0 3.0 2.0 23 57
+ 11.901166 3 6 ack 40 ------- 0 3.0 2.0 24 58
- 11.901166 3 6 ack 40 ------- 0 3.0 2.0 24 58
+ 11.901252 3 6 ack 40 ------- 0 3.0 2.0 25 59
- 11.901252 3 6 ack 40 ------- 0 3.0 2.0 25 59
+ 11.901337 3 6 ack 40 ------- 0 3.0 2.0 26 60
- 11.901337 3 6 ack 40 ------- 0 3.0 2.0 26 60
+ 11.901422 3 6 ack 40 ------- 0 3.0 2.0 27 61
- 11.901422 3 6 ack 40 ------- 0 3.0 2.0 27 61
+ 11.901508 3 6 ack 40 ------- 0 3.0 2.0 28 62
- 11.901508 3 6 ack 40 ------- 0 3.0 2.0 28 62
+ 11.901593 3 6 ack 40 ------- 0 3.0 2.0 29 63
- 11.901593 3 6 ack 40 ------- 0 3.0 2.0 29 63
+ 11.901678 3 6 ack 40 ------- 0 3.0 2.0 30 64
- 11.901678 3 6 ack 40 ------- 0 3.0 2.0 30 64
r 12.000408 6 2 ack 40 ------- 0 3.0 2.0 15 49
h 12.000408 2 6 tcp 1040 ------- 0 2.0 3.0 31 65
h 12.000408 2 6 tcp 1040 ------- 0 2.0 3.0 32 66
r 12.000493 6 2 ack 40 ------- 0 3.0 2.0 16 50
h 12.000493 2 6 tcp 1040 ------- 0 2.0 3.0 33 67
h 12.000493 2 6 tcp 1040 ------- 0 2.0 3.0 34 68
r 12.000579 6 2 ack 40 ------- 0 3.0 2.0 17 51
h 12.000579 2 6 tcp 1040 ------- 0 2.0 3.0 35 69
h 12.000579 2 6 tcp 1040 ------- 0 2.0 3.0 36 70
r 12.000664 6 2 ack 40 ------- 0 3.0 2.0 18 52
h 12.000664 2 6 tcp 1040 ------- 0 2.0 3.0 37 71
h 12.000664 2 6 tcp 1040 ------- 0 2.0 3.0 38 72
r 12.000749 6 2 ack 40 ------- 0 3.0 2.0 19 53
h 12.000749 2 6 tcp 1040 ------- 0 2.0 3.0 39 73
r 12.000834 6 2 ack 40 ------- 0 3.0 2.0 20 54
h 12.000834 2 6 tcp 1040 ------- 0 2.0 3.0 40 74
r 12.00092 6 2 ack 40 ------- 0 3.0 2.0 21 55
h 12.00092 2 6 tcp 1040 ------- 0 2.0 3.0 41 75
r 12.001005 6 2 ack 40 ------- 0 3.0 2.0 22 56
h 12.001005 2 6 tcp 1040 ------- 0 2.0 3.0 42 76
r 12.00109 6 2 ack 40 ------- 0 3.0 2.0 23 57
h 12.00109 2 6 tcp 1040 ------- 0 2.0 3.0 43 77
r 12.001176 6 2 ack 40 ------- 0 3.0 2.0 24 58
h 12.001176 2 6 tcp 1040 ------- 0 2.0 3.0 44 78
r 12.001261 6 2 ack 40 ------- 0 3.0 2.0 25 59
h 12.001261 2 6 tcp 1040 ------- 0 2.0 3.0 45 79
r 12.001346 6 2 ack 40 ------- 0 3.0 2.0 26 60
h 12.001346 2 6 tcp 1040 ------- 0 2.0 3.0 46 80
r 12.001431 6 2 ack 40 ------- 0 3.0 2.0 27 61
h 12.001431 2 6 tcp 1040 ------- 0 2.0 3.0 47 81
r 12.001517 6 2 ack 40 ------- 0 3.0 2.0 28 62
h 12.001517 2 6 tcp 1040 ------- 0 2.0 3.0 48 82
r 12.001602 6 2 ack 40 ------- 0 3.0 2.0 29 63
h 12.001602 2 6 tcp 1040 ------- 0 2.0 3.0 49 83
r 12.001687 6 2 ack 40 ------- 0 3.0 2.0 30 64
h 12.001687 2 6 tcp 1040 ------- 0 2.0 3.0 50 84
+ 12.100408 2 6 tcp 1040 ------- 0 2.0 3.0 31 65
- 12.100408 2 6 tcp 1040 ------- 0 2.0 3.0 31 65
+ 12.100408 2 6 tcp 1040 ------- 0 2.0 3.0 32 66
+ 12.100493 2 6 tcp 1040 ------- 0 2.0 3.0 33 67
+ 12.100493 2 6 tcp 1040 ------- 0 2.0 3.0 34 68
- 12.100493 2 6 tcp 1040 ------- 0 2.0 3.0 32 66
+ 12.100579 2 6 tcp 1040 ------- 0 2.0 3.0 35 69
+ 12.100579 2 6 tcp 1040 ------- 0 2.0 3.0 36 70
- 12.100579 2 6 tcp 1040 ------- 0 2.0 3.0 33 67
+ 12.100664 2 6 tcp 1040 ------- 0 2.0 3.0 37 71
+ 12.100664 2 6 tcp 1040 ------- 0 2.0 3.0 38 72
- 12.100664 2 6 tcp 1040 ------- 0 2.0 3.0 34 68
+ 12.100749 2 6 tcp 1040 ------- 0 2.0 3.0 39 73
- 12.100749 2 6 tcp 1040 ------- 0 2.0 3.0 35 69
+ 12.100834 2 6 tcp 1040 ------- 0 2.0 3.0 40 74
- 12.100834 2 6 tcp 1040 ------- 0 2.0 3.0 36 70
+ 12.10092 2 6 tcp 1040 ------- 0 2.0 3.0 41 75
- 12.10092 2 6 tcp 1040 ------- 0 2.0 3.0 37 71
+ 12.101005 2 6 tcp 1040 ------- 0 2.0 3.0 42 76
- 12.101005 2 6 tcp 1040 ------- 0 2.0 3.0 38 72
+ 12.10109 2 6 tcp 1040 ------- 0 2.0 3.0 43 77
- 12.10109 2 6 tcp 1040 ------- 0 2.0 3.0 39 73
+ 12.101176 2 6 tcp 1040 ------- 0 2.0 3.0 44 78
- 12.101176 2 6 tcp 1040 ------- 0 2.0 3.0 40 74
+ 12.101261 2 6 tcp 1040 ------- 0 2.0 3.0 45 79
- 12.101261 2 6 tcp 1040 ------- 0 2.0 3.0 41 75
+ 12.101346 2 6 tcp 1040 ------- 0 2.0 3.0 46 80
- 12.101346 2 6 tcp 1040 ------- 0 2.0 3.0 42 76
+ 12.101431 2 6 tcp 1040 ------- 0 2.0 3.0 47 81
- 12.101431 2 6 tcp 1040 ------- 0 2.0 3.0 43 77
+ 12.101517 2 6 tcp 1040 ------- 0 2.0 3.0 48 82
- 12.101517 2 6 tcp 1040 ------- 0 2.0 3.0 44 78
+ 12.101602 2 6 tcp 1040 ------- 0 2.0 3.0 49 83
- 12.101602 2 6 tcp 1040 ------- 0 2.0 3.0 45 79
+ 12.101687 2 6 tcp 1040 ------- 0 2.0 3.0 50 84
- 12.101687 2 6 tcp 1040 ------- 0 2.0 3.0 46 80
- 12.101772 2 6 tcp 1040 ------- 0 2.0 3.0 47 81
- 12.101858 2 6 tcp 1040 ------- 0 2.0 3.0 48 82
- 12.101943 2 6 tcp 1040 ------- 0 2.0 3.0 49 83
- 12.102028 2 6 tcp 1040 ------- 0 2.0 3.0 50 84
r 12.200496 6 3 tcp 1040 ------- 0 2.0 3.0 31 65
h 12.200496 3 6 ack 40 ------- 0 3.0 2.0 31 85
r 12.200582 6 3 tcp 1040 ------- 0 2.0 3.0 32 66
h 12.200582 3 6 ack 40 ------- 0 3.0 2.0 32 86
r 12.200667 6 3 tcp 1040 ------- 0 2.0 3.0 33 67
h 12.200667 3 6 ack 40 ------- 0 3.0 2.0 33 87
r 12.200752 6 3 tcp 1040 ------- 0 2.0 3.0 34 68
h 12.200752 3 6 ack 40 ------- 0 3.0 2.0 34 88
r 12.200837 6 3 tcp 1040 ------- 0 2.0 3.0 35 69
h 12.200837 3 6 ack 40 ------- 0 3.0 2.0 35 89
r 12.200923 6 3 tcp 1040 ------- 0 2.0 3.0 36 70
h 12.200923 3 6 ack 40 ------- 0 3.0 2.0 36 90
r 12.201008 6 3 tcp 1040 ------- 0 2.0 3.0 37 71
h 12.201008 3 6 ack 40 ------- 0 3.0 2.0 37 91
r 12.201093 6 3 tcp 1040 ------- 0 2.0 3.0 38 72
h 12.201093 3 6 ack 40 ------- 0 3.0 2.0 38 92
r 12.201179 6 3 tcp 1040 ------- 0 2.0 3.0 39 73
h 12.201179 3 6 ack 40 ------- 0 3.0 2.0 39 93
r 12.201264 6 3 tcp 1040 ------- 0 2.0 3.0 40 74
h 12.201264 3 6 ack 40 ------- 0 3.0 2.0 40 94
r 12.201349 6 3 tcp 1040 ------- 0 2.0 3.0 41 75
h 12.201349 3 6 ack 40 ------- 0 3.0 2.0 41 95
r 12.201434 6 3 tcp 1040 ------- 0 2.0 3.0 42 76
h 12.201434 3 6 ack 40 ------- 0 3.0 2.0 42 96
r 12.20152 6 3 tcp 1040 ------- 0 2.0 3.0 43 77
h 12.20152 3 6 ack 40 ------- 0 3.0 2.0 43 97
r 12.201605 6 3 tcp 1040 ------- 0 2.0 3.0 44 78
h 12.201605 3 6 ack 40 ------- 0 3.0 2.0 44 98
r 12.20169 6 3 tcp 1040 ------- 0 2.0 3.0 45 79
h 12.20169 3 6 ack 40 ------- 0 3.0 2.0 45 99
r 12.201776 6 3 tcp 1040 ------- 0 2.0 3.0 46 80
h 12.201776 3 6 ack 40 ------- 0 3.0 2.0 46 100
r 12.201861 6 3 tcp 1040 ------- 0 2.0 3.0 47 81
h 12.201861 3 6 ack 40 ------- 0 3.0 2.0 47 101
r 12.201946 6 3 tcp 1040 ------- 0 2.0 3.0 48 82
h 12.201946 3 6 ack 40 ------- 0 3.0 2.0 48 102
r 12.202031 6 3 tcp 1040 ------- 0 2.0 3.0 49 83
h 12.202031 3 6 ack 40 ------- 0 3.0 2.0 49 103
r 12.202117 6 3 tcp 1040 ------- 0 2.0 3.0 50 84
h 12.202117 3 6 ack 40 ------- 0 3.0 2.0 50 104
+ 12.300496 3 6 ack 40 ------- 0 3.0 2.0 31 85
- 12.300496 3 6 ack 40 ------- 0 3.0 2.0 31 85
+ 12.300582 3 6 ack 40 ------- 0 3.0 2.0 32 86
- 12.300582 3 6 ack 40 ------- 0 3.0 2.0 32 86
+ 12.300667 3 6 ack 40 ------- 0 3.0 2.0 33 87
- 12.300667 3 6 ack 40 ------- 0 3.0 2.0 33 87
+ 12.300752 3 6 ack 40 ------- 0 3.0 2.0 34 88
- 12.300752 3 6 ack 40 ------- 0 3.0 2.0 34 88
+ 12.300837 3 6 ack 40 ------- 0 3.0 2.0 35 89
- 12.300837 3 6 ack 40 ------- 0 3.0 2.0 35 89
+ 12.300923 3 6 ack 40 ------- 0 3.0 2.0 36 90
- 12.300923 3 6 ack 40 ------- 0 3.0 2.0 36 90
+ 12.301008 3 6 ack 40 ------- 0 3.0 2.0 37 91
- 12.301008 3 6 ack 40 ------- 0 3.0 2.0 37 91
+ 12.301093 3 6 ack 40 ------- 0 3.0 2.0 38 92
- 12.301093 3 6 ack 40 ------- 0 3.0 2.0 38 92
+ 12.301179 3 6 ack 40 ------- 0 3.0 2.0 39 93
- 12.301179 3 6 ack 40 ------- 0 3.0 2.0 39 93
+ 12.301264 3 6 ack 40 ------- 0 3.0 2.0 40 94
- 12.301264 3 6 ack 40 ------- 0 3.0 2.0 40 94
+ 12.301349 3 6 ack 40 ------- 0 3.0 2.0 41 95
- 12.301349 3 6 ack 40 ------- 0 3.0 2.0 41 95
+ 12.301434 3 6 ack 40 ------- 0 3.0 2.0 42 96
- 12.301434 3 6 ack 40 ------- 0 3.0 2.0 42 96
+ 12.30152 3 6 ack 40 ------- 0 3.0 2.0 43 97
- 12.30152 3 6 ack 40 ------- 0 3.0 2.0 43 97
+ 12.301605 3 6 ack 40 ------- 0 3.0 2.0 44 98
- 12.301605 3 6 ack 40 ------- 0 3.0 2.0 44 98
+ 12.30169 3 6 ack 40 ------- 0 3.0 2.0 45 99
- 12.30169 3 6 ack 40 ------- 0 3.0 2.0 45 99
+ 12.301776 3 6 ack 40 ------- 0 3.0 2.0 46 100
- 12.301776 3 6 ack 40 ------- 0 3.0 2.0 46 100
+ 12.301861 3 6 ack 40 ------- 0 3.0 2.0 47 101
- 12.301861 3 6 ack 40 ------- 0 3.0 2.0 47 101
+ 12.301946 3 6 ack 40 ------- 0 3.0 2.0 48 102
- 12.301946 3 6 ack 40 ------- 0 3.0 2.0 48 102
+ 12.302031 3 6 ack 40 ------- 0 3.0 2.0 49 103
- 12.302031 3 6 ack 40 ------- 0 3.0 2.0 49 103
+ 12.302117 3 6 ack 40 ------- 0 3.0 2.0 50 104
- 12.302117 3 6 ack 40 ------- 0 3.0 2.0 50 104
r 12.400505 6 2 ack 40 ------- 0 3.0 2.0 31 85
h 12.400505 2 6 tcp 1040 ------- 0 2.0 3.0 51 105
r 12.400591 6 2 ack 40 ------- 0 3.0 2.0 32 86
h 12.400591 2 6 tcp 1040 ------- 0 2.0 3.0 52 106
r 12.400676 6 2 ack 40 ------- 0 3.0 2.0 33 87
h 12.400676 2 6 tcp 1040 ------- 0 2.0 3.0 53 107
r 12.400761 6 2 ack 40 ------- 0 3.0 2.0 34 88
h 12.400761 2 6 tcp 1040 ------- 0 2.0 3.0 54 108
r 12.400847 6 2 ack 40 ------- 0 3.0 2.0 35 89
h 12.400847 2 6 tcp 1040 ------- 0 2.0 3.0 55 109
r 12.400932 6 2 ack 40 ------- 0 3.0 2.0 36 90
h 12.400932 2 6 tcp 1040 ------- 0 2.0 3.0 56 110
r 12.401017 6 2 ack 40 ------- 0 3.0 2.0 37 91
h 12.401017 2 6 tcp 1040 ------- 0 2.0 3.0 57 111
r 12.401102 6 2 ack 40 ------- 0 3.0 2.0 38 92
h 12.401102 2 6 tcp 1040 ------- 0 2.0 3.0 58 112
r 12.401188 6 2 ack 40 ------- 0 3.0 2.0 39 93
h 12.401188 2 6 tcp 1040 ------- 0 2.0 3.0 59 113
r 12.401273 6 2 ack 40 ------- 0 3.0 2.0 40 94
h 12.401273 2 6 tcp 1040 ------- 0 2.0 3.0 60 114
r 12.401358 6 2 ack 40 ------- 0 3.0 2.0 41 95
h 12.401358 2 6 tcp 1040 ------- 0 2.0 3.0 61 115
r 12.401444 6 2 ack 40 ------- 0 3.0 2.0 42 96
h 12.401444 2 6 tcp 1040 ------- 0 2.0 3.0 62 116
r 12.401529 6 2 ack 40 ------- 0 3.0 2.0 43 97
h 12.401529 2 6 tcp 1040 ------- 0 2.0 3.0 63 117
r 12.401614 6 2 ack 40 ------- 0 3.0 2.0 44 98
h 12.401614 2 6 tcp 1040 ------- 0 2.0 3.0 64 118
r 12.401699 6 2 ack 40 ------- 0 3.0 2.0 45 99
h 12.401699 2 6 tcp 1040 ------- 0 2.0 3.0 65 119
r 12.401785 6 2 ack 40 ------- 0 3.0 2.0 46 100
h 12.401785 2 6 tcp 1040 ------- 0 2.0 3.0 66 120
r 12.40187 6 2 ack 40 ------- 0 3.0 2.0 47 101
h 12.40187 2 6 tcp 1040 ------- 0 2.0 3.0 67 121
r 12.401955 6 2 ack 40 ------- 0 3.0 2.0 48 102
h 12.401955 2 6 tcp 1040 ------- 0 2.0 3.0 68 122
r 12.40204 6 2 ack 40 ------- 0 3.0 2.0 49 103
h 12.40204 2 6 tcp 1040 ------- 0 2.0 3.0 69 123
r 12.402126 6 2 ack 40 ------- 0 3.0 2.0 50 104
h 12.402126 2 6 tcp 1040 ------- 0 2.0 3.0 70 124
+ 12.500505 2 6 tcp 1040 ------- 0 2.0 3.0 51 105
- 12.500505 2 6 tcp 1040 ------- 0 2.0 3.0 51 105
+ 12.500591 2 6 tcp 1040 ------- 0 2.0 3.0 52 106
- 12.500591 2 6 tcp 1040 ------- 0 2.0 3.0 52 106
+ 12.500676 2 6 tcp 1040 ------- 0 2.0 3.0 53 107
- 12.500676 2 6 tcp 1040 ------- 0 2.0 3.0 53 107
+ 12.500761 2 6 tcp 1040 ------- 0 2.0 3.0 54 108
- 12.500761 2 6 tcp 1040 ------- 0 2.0 3.0 54 108
+ 12.500847 2 6 tcp 1040 ------- 0 2.0 3.0 55 109
- 12.500847 2 6 tcp 1040 ------- 0 2.0 3.0 55 109
+ 12.500932 2 6 tcp 1040 ------- 0 2.0 3.0 56 110
- 12.500932 2 6 tcp 1040 ------- 0 2.0 3.0 56 110
+ 12.501017 2 6 tcp 1040 ------- 0 2.0 3.0 57 111
- 12.501017 2 6 tcp 1040 ------- 0 2.0 3.0 57 111
+ 12.501102 2 6 tcp 1040 ------- 0 2.0 3.0 58 112
- 12.501102 2 6 tcp 1040 ------- 0 2.0 3.0 58 112
+ 12.501188 2 6 tcp 1040 ------- 0 2.0 3.0 59 113
- 12.501188 2 6 tcp 1040 ------- 0 2.0 3.0 59 113
+ 12.501273 2 6 tcp 1040 ------- 0 2.0 3.0 60 114
- 12.501273 2 6 tcp 1040 ------- 0 2.0 3.0 60 114
+ 12.501358 2 6 tcp 1040 ------- 0 2.0 3.0 61 115
- 12.501358 2 6 tcp 1040 ------- 0 2.0 3.0 61 115
+ 12.501444 2 6 tcp 1040 ------- 0 2.0 3.0 62 116
- 12.501444 2 6 tcp 1040 ------- 0 2.0 3.0 62 116
+ 12.501529 2 6 tcp 1040 ------- 0 2.0 3.0 63 117
- 12.501529 2 6 tcp 1040 ------- 0 2.0 3.0 63 117
+ 12.501614 2 6 tcp 1040 ------- 0 2.0 3.0 64 118
- 12.501614 2 6 tcp 1040 ------- 0 2.0 3.0 64 118
+ 12.501699 2 6 tcp 1040 ------- 0 2.0 3.0 65 119
- 12.501699 2 6 tcp 1040 ------- 0 2.0 3.0 65 119
+ 12.501785 2 6 tcp 1040 ------- 0 2.0 3.0 66 120
- 12.501785 2 6 tcp 1040 ------- 0 2.0 3.0 66 120
+ 12.50187 2 6 tcp 1040 ------- 0 2.0 3.0 67 121
- 12.50187 2 6 tcp 1040 ------- 0 2.0 3.0 67 121
+ 12.501955 2 6 tcp 1040 ------- 0 2.0 3.0 68 122
- 12.501955 2 6 tcp 1040 ------- 0 2.0 3.0 68 122
+ 12.50204 2 6 tcp 1040 ------- 0 2.0 3.0 69 123
- 12.50204 2 6 tcp 1040 ------- 0 2.0 3.0 69 123
+ 12.502126 2 6 tcp 1040 ------- 0 2.0 3.0 70 124
- 12.502126 2 6 tcp 1040 ------- 0 2.0 3.0 70 124
r 12.600594 6 3 tcp 1040 ------- 0 2.0 3.0 51 105
h 12.600594 3 6 ack 40 ------- 0 3.0 2.0 51 125
r 12.600679 6 3 tcp 1040 ------- 0 2.0 3.0 52 106
h 12.600679 3 6 ack 40 ------- 0 3.0 2.0 52 126
r 12.600764 6 3 tcp 1040 ------- 0 2.0 3.0 53 107
h 12.600764 3 6 ack 40 ------- 0 3.0 2.0 53 127
r 12.60085 6 3 tcp 1040 ------- 0 2.0 3.0 54 108
h 12.60085 3 6 ack 40 ------- 0 3.0 2.0 54 128
r 12.600935 6 3 tcp 1040 ------- 0 2.0 3.0 55 109
h 12.600935 3 6 ack 40 ------- 0 3.0 2.0 55 129
r 12.60102 6 3 tcp 1040 ------- 0 2.0 3.0 56 110
h 12.60102 3 6 ack 40 ------- 0 3.0 2.0 56 130
r 12.601105 6 3 tcp 1040 ------- 0 2.0 3.0 57 111
h 12.601105 3 6 ack 40 ------- 0 3.0 2.0 57 131
r 12.601191 6 3 tcp 1040 ------- 0 2.0 3.0 58 112
h 12.601191 3 6 ack 40 ------- 0 3.0 2.0 58 132
r 12.601276 6 3 tcp 1040 ------- 0 2.0 3.0 59 113
h 12.601276 3 6 ack 40 ------- 0 3.0 2.0 59 133
r 12.601361 6 3 tcp 1040 ------- 0 2.0 3.0 60 114
h 12.601361 3 6 ack 40 ------- 0 3.0 2.0 60 134
r 12.601447 6 3 tcp 1040 ------- 0 2.0 3.0 61 115
h 12.601447 3 6 ack 40 ------- 0 3.0 2.0 61 135
r 12.601532 6 3 tcp 1040 ------- 0 2.0 3.0 62 116
h 12.601532 3 6 ack 40 ------- 0 3.0 2.0 62 136
r 12.601617 6 3 tcp 1040 ------- 0 2.0 3.0 63 117
h 12.601617 3 6 ack 40 ------- 0 3.0 2.0 63 137
r 12.601702 6 3 tcp 1040 ------- 0 2.0 3.0 64 118
h 12.601702 3 6 ack 40 ------- 0 3.0 2.0 64 138
r 12.601788 6 3 tcp 1040 ------- 0 2.0 3.0 65 119
h 12.601788 3 6 ack 40 ------- 0 3.0 2.0 65 139
r 12.601873 6 3 tcp 1040 ------- 0 2.0 3.0 66 120
h 12.601873 3 6 ack 40 ------- 0 3.0 2.0 66 140
r 12.601958 6 3 tcp 1040 ------- 0 2.0 3.0 67 121
h 12.601958 3 6 ack 40 ------- 0 3.0 2.0 67 141
r 12.602044 6 3 tcp 1040 ------- 0 2.0 3.0 68 122
h 12.602044 3 6 ack 40 ------- 0 3.0 2.0 68 142
r 12.602129 6 3 tcp 1040 ------- 0 2.0 3.0 69 123
h 12.602129 3 6 ack 40 ------- 0 3.0 2.0 69 143
r 12.602214 6 3 tcp 1040 ------- 0 2.0 3.0 70 124
h 12.602214 3 6 ack 40 ------- 0 3.0 2.0 70 144
+ 12.700594 3 6 ack 40 ------- 0 3.0 2.0 51 125
- 12.700594 3 6 ack 40 ------- 0 3.0 2.0 51 125
+ 12.700679 3 6 ack 40 ------- 0 3.0 2.0 52 126
- 12.700679 3 6 ack 40 ------- 0 3.0 2.0 52 126
+ 12.700764 3 6 ack 40 ------- 0 3.0 2.0 53 127
- 12.700764 3 6 ack 40 ------- 0 3.0 2.0 53 127
+ 12.70085 3 6 ack 40 ------- 0 3.0 2.0 54 128
- 12.70085 3 6 ack 40 ------- 0 3.0 2.0 54 128
+ 12.700935 3 6 ack 40 ------- 0 3.0 2.0 55 129
- 12.700935 3 6 ack 40 ------- 0 3.0 2.0 55 129
+ 12.70102 3 6 ack 40 ------- 0 3.0 2.0 56 130
- 12.70102 3 6 ack 40 ------- 0 3.0 2.0 56 130
+ 12.701105 3 6 ack 40 ------- 0 3.0 2.0 57 131
- 12.701105 3 6 ack 40 ------- 0 3.0 2.0 57 131
+ 12.701191 3 6 ack 40 ------- 0 3.0 2.0 58 132
- 12.701191 3 6 ack 40 ------- 0 3.0 2.0 58 132
+ 12.701276 3 6 ack 40 ------- 0 3.0 2.0 59 133
- 12.701276 3 6 ack 40 ------- 0 3.0 2.0 59 133
+ 12.701361 3 6 ack 40 ------- 0 3.0 2.0 60 134
- 12.701361 3 6 ack 40 ------- 0 3.0 2.0 60 134
+ 12.701447 3 6 ack 40 ------- 0 3.0 2.0 61 135
- 12.701447 3 6 ack 40 ------- 0 3.0 2.0 61 135
+ 12.701532 3 6 ack 40 ------- 0 3.0 2.0 62 136
- 12.701532 3 6 ack 40 ------- 0 3.0 2.0 62 136
+ 12.701617 3 6 ack 40 ------- 0 3.0 2.0 63 137
- 12.701617 3 6 ack 40 ------- 0 3.0 2.0 63 137
+ 12.701702 3 6 ack 40 ------- 0 3.0 2.0 64 138
- 12.701702 3 6 ack 40 ------- 0 3.0 2.0 64 138
+ 12.701788 3 6 ack 40 ------- 0 3.0 2.0 65 139
- 12.701788 3 6 ack 40 ------- 0 3.0 2.0 65 139
+ 12.701873 3 6 ack 40 ------- 0 3.0 2.0 66 140
- 12.701873 3 6 ack 40 ------- 0 3.0 2.0 66 140
+ 12.701958 3 6 ack 40 ------- 0 3.0 2.0 67 141
- 12.701958 3 6 ack 40 ------- 0 3.0 2.0 67 141
+ 12.702044 3 6 ack 40 ------- 0 3.0 2.0 68 142
- 12.702044 3 6 ack 40 ------- 0 3.0 2.0 68 142
+ 12.702129 3 6 ack 40 ------- 0 3.0 2.0 69 143
- 12.702129 3 6 ack 40 ------- 0 3.0 2.0 69 143
+ 12.702214 3 6 ack 40 ------- 0 3.0 2.0 70 144
- 12.702214 3 6 ack 40 ------- 0 3.0 2.0 70 144
r 12.800603 6 2 ack 40 ------- 0 3.0 2.0 51 125
h 12.800603 2 6 tcp 1040 ------- 0 2.0 3.0 71 145
r 12.800688 6 2 ack 40 ------- 0 3.0 2.0 52 126
h 12.800688 2 6 tcp 1040 ------- 0 2.0 3.0 72 146
r 12.800773 6 2 ack 40 ------- 0 3.0 2.0 53 127
h 12.800773 2 6 tcp 1040 ------- 0 2.0 3.0 73 147
r 12.800859 6 2 ack 40 ------- 0 3.0 2.0 54 128
h 12.800859 2 6 tcp 1040 ------- 0 2.0 3.0 74 148
r 12.800944 6 2 ack 40 ------- 0 3.0 2.0 55 129
h 12.800944 2 6 tcp 1040 ------- 0 2.0 3.0 75 149
r 12.801029 6 2 ack 40 ------- 0 3.0 2.0 56 130
h 12.801029 2 6 tcp 1040 ------- 0 2.0 3.0 76 150
r 12.801115 6 2 ack 40 ------- 0 3.0 2.0 57 131
h 12.801115 2 6 tcp 1040 ------- 0 2.0 3.0 77 151
r 12.8012 6 2 ack 40 ------- 0 3.0 2.0 58 132
h 12.8012 2 6 tcp 1040 ------- 0 2.0 3.0 78 152
r 12.801285 6 2 ack 40 ------- 0 3.0 2.0 59 133
h 12.801285 2 6 tcp 1040 ------- 0 2.0 3.0 79 153
r 12.80137 6 2 ack 40 ------- 0 3.0 2.0 60 134
h 12.80137 2 6 tcp 1040 ------- 0 2.0 3.0 80 154
r 12.801456 6 2 ack 40 ------- 0 3.0 2.0 61 135
h 12.801456 2 6 tcp 1040 ------- 0 2.0 3.0 81 155
r 12.801541 6 2 ack 40 ------- 0 3.0 2.0 62 136
h 12.801541 2 6 tcp 1040 ------- 0 2.0 3.0 82 156
r 12.801626 6 2 ack 40 ------- 0 3.0 2.0 63 137
h 12.801626 2 6 tcp 1040 ------- 0 2.0 3.0 83 157
r 12.801712 6 2 ack 40 ------- 0 3.0 2.0 64 138
h 12.801712 2 6 tcp 1040 ------- 0 2.0 3.0 84 158
r 12.801797 6 2 ack 40 ------- 0 3.0 2.0 65 139
h 12.801797 2 6 tcp 1040 ------- 0 2.0 3.0 85 159
r 12.801882 6 2 ack 40 ------- 0 3.0 2.0 66 140
h 12.801882 2 6 tcp 1040 ------- 0 2.0 3.0 86 160
r 12.801967 6 2 ack 40 ------- 0 3.0 2.0 67 141
h 12.801967 2 6 tcp 1040 ------- 0 2.0 3.0 87 161
r 12.802053 6 2 ack 40 ------- 0 3.0 2.0 68 142
h 12.802053 2 6 tcp 1040 ------- 0 2.0 3.0 88 162
r 12.802138 6 2 ack 40 ------- 0 3.0 2.0 69 143
h 12.802138 2 6 tcp 1040 ------- 0 2.0 3.0 89 163
r 12.802223 6 2 ack 40 ------- 0 3.0 2.0 70 144
h 12.802223 2 6 tcp 1040 ------- 0 2.0 3.0 90 164
+ 12.900603 2 6 tcp 1040 ------- 0 2.0 3.0 71 145
- 12.900603 2 6 tcp 1040 ------- 0 2.0 3.0 71 145
+ 12.900688 2 6 tcp 1040 ------- 0 2.0 3.0 72 146
- 12.900688 2 6 tcp 1040 ------- 0 2.0 3.0 72 146
+ 12.900773 2 6 tcp 1040 ------- 0 2.0 3.0 73 147
- 12.900773 2 6 tcp 1040 ------- 0 2.0 3.0 73 147
+ 12.900859 2 6 tcp 1040 ------- 0 2.0 3.0 74 148
- 12.900859 2 6 tcp 1040 ------- 0 2.0 3.0 74 148
+ 12.900944 2 6 tcp 1040 ------- 0 2.0 3.0 75 149
- 12.900944 2 6 tcp 1040 ------- 0 2.0 3.0 75 149
+ 12.901029 2 6 tcp 1040 ------- 0 2.0 3.0 76 150
- 12.901029 2 6 tcp 1040 ------- 0 2.0 3.0 76 150
+ 12.901115 2 6 tcp 1040 ------- 0 2.0 3.0 77 151
- 12.901115 2 6 tcp 1040 ------- 0 2.0 3.0 77 151
+ 12.9012 2 6 tcp 1040 ------- 0 2.0 3.0 78 152
- 12.9012 2 6 tcp 1040 ------- 0 2.0 3.0 78 152
+ 12.901285 2 6 tcp 1040 ------- 0 2.0 3.0 79 153